8
1,1,2-TRIBROMOETHANE.gamout	Energy:   -7800.3258946
C          0.49487        0.84046        0.03107
C          2.01009        0.86644        0.04256
Br         2.75703        1.72632        1.63716
Br         2.65703       -0.99944       -0.12002
Br        -0.24885        2.66362       -0.13389
H          0.13964        0.28995       -0.85855
H          0.07512        0.39829        0.95109
H          2.43046        1.40398       -0.82327
