11
1,1,1,2,2-PENTAFLUOROPROPANE.gamout	Energy:    -614.9242631
C         -1.36232       -0.64186        0.30535
C          0.09209       -0.55615       -0.10277
C          0.70709        0.87687       -0.03719
F          0.87107       -1.35018        0.70643
F          0.26106       -0.99768       -1.39393
F          0.03112        1.71665       -0.85640
F          2.00010        0.86851       -0.40798
F          0.62208        1.35989        1.22549
H         -1.67995       -1.69607        0.22610
H         -1.98162       -0.01737       -0.36272
H         -1.48189       -0.29816        1.34808
