18
1,1,2-TRIMETHYLCYCLOPROPANE.gamout	Energy:    -235.6762721
C          2.15495        2.91767        2.51187
C          3.42450        3.04938        3.33686
C          0.88455        3.17384        3.30910
C          2.07870        1.89224        1.38636
C          2.17807        3.37306        1.06230
C          3.20121        0.92990        1.04678
H          3.44319        2.30696        4.16106
H          3.48377        4.05711        3.79705
H          4.33906        2.90830        2.73306
H         -0.02026        3.03903        2.68613
H          0.86765        4.20844        3.71087
H          0.80917        2.47937        4.17123
H          1.07487        1.45436        1.25705
H          3.13481        3.73964        0.66106
H          1.29478        3.88773        0.65797
H          3.17615        0.03488        1.70079
H          4.19761        1.39857        1.15546
H          3.11685        0.58122       -0.00300
