11
1,1,2,2,3-PENTAFLUOROPROPANE.gamout	Energy:    -614.8965622
C          1.84207        0.37143       -1.90674
C          0.56966       -0.45986       -1.70648
C          0.12022       -1.19766       -2.99876
F         -0.44604        0.34189       -1.26755
F          0.78312       -1.42658       -0.75053
F         -1.12605       -1.71160       -2.82514
F          0.08458       -0.30096       -4.04010
H          0.81675       -2.02211       -3.26023
F          2.22019        0.93738       -0.70042
H          1.64019        1.17515       -2.64177
H          2.66301       -0.28122       -2.26986
