9
1,1,2-TRIFLUOROETHANOL.gamout	Energy:    -452.4658038
F         -0.48664       -1.09564        0.77846
C         -0.42911       -0.00000       -0.06177
C          0.87553       -0.00009       -0.86246
F          1.95939        0.00003       -0.00212
O         -1.47434        0.00010       -0.93682
F         -0.48676        1.09560        0.77843
H          0.90668       -0.90984       -1.49418
H          0.90674        0.90954       -1.49433
H         -2.31397        0.00012       -0.43651
