21
1,1-DIMETHYLCYCLOPENTANE.gamout	Energy:    -274.9887156
C          1.72364        0.55725       -0.98633
C          0.67810        0.00679       -0.00318
C         -0.28072        1.13811        0.51749
C         -1.70966        0.75643        0.06594
C         -1.65921       -0.77416       -0.07441
C         -0.27958       -1.00283       -0.70963
C          1.39127       -0.67686        1.17719
H          2.42386        1.25685       -0.48641
H          2.32785       -0.26103       -1.42778
H          1.23590        1.10173       -1.81879
H         -0.23076        1.20024        1.62341
H          0.01998        2.13329        0.13582
H         -2.49315        1.10697        0.76510
H         -1.93330        1.21074       -0.92252
H         -1.71194       -1.25018        0.92851
H         -2.49332       -1.18781       -0.67348
H         -0.33560       -0.76195       -1.79223
H          0.08048       -2.04627       -0.62625
H          1.99350        0.05253        1.75468
H          0.66473       -1.13770        1.87514
H          2.07312       -1.47342        0.81921
