21
1,2,4-TRIMETHYLBENZENE.gamout	Energy:    -349.9514129
C         -1.33207        1.74370       -0.12110
C         -2.22852        0.72653        0.22603
C          0.05896        1.61049        0.07778
C          0.54343        0.40607        0.64627
C         -0.37539       -0.60627        0.98887
C         -1.75937       -0.47590        0.79185
H         -3.30671        0.86469        0.05672
H         -1.71943        2.67556       -0.56248
H          0.01134       -1.53838        1.43025
C          0.98735        2.73673       -0.31463
H          0.41913        3.58560       -0.73844
H          1.56309        3.12129        0.55253
H          1.72664        2.41568       -1.07704
C          2.01446        0.15625        0.90353
H          2.65431        1.00332        0.60413
H          2.36581       -0.73989        0.35163
H          2.20055       -0.03793        1.98002
C         -2.71372       -1.58294        1.17235
H         -2.17402       -2.44871        1.59925
H         -3.28748       -1.93807        0.29209
H         -3.45133       -1.23504        1.92378
