30
1,2,4-TRIETHYLBENZENE.gamout	Energy:    -467.8045768
C          2.72560        0.80421        1.83042
C          2.14396        1.69822        2.94358
C          2.82864        3.05136        3.05686
C          2.23258        4.26391        2.61324
C          4.12604        3.09506        3.61248
C          0.84543        4.32378        1.99668
C          2.97667        5.45816        2.73988
C          4.86847        4.28443        3.73539
C          0.81947        3.99823        0.49035
C          4.26882        5.47692        3.28107
C          6.24388        4.28664        4.37518
C          6.20728        4.56231        5.89158
H          2.62706        1.28425        0.83747
H          2.20507       -0.17356        1.79366
H          3.80334        0.61104        1.99738
H          2.24224        1.16750        3.91483
H          1.05718        1.82782        2.78091
H          4.57862        2.15301        3.96467
H          0.43650        5.34334        2.15066
H          0.15678        3.63973        2.53399
H          2.52267        6.40291        2.40128
H          1.17107        2.96713        0.29279
H          1.48090        4.68698       -0.07117
H         -0.20486        4.09123        0.07776
H          4.81723        6.42862        3.35834
H          6.87790        5.05112        3.87925
H          6.73295        3.30810        4.19000
H          5.75048        5.54890        6.10386
H          7.22864        4.55474        6.32173
H          5.60570        3.79570        6.41876
