24
1,2,3,4-TETRAMETHYLBENZENE.gamout	Energy:    -389.2375862
C          3.25819        5.31535        1.22330
C          3.22811        3.83506        0.91167
C          4.44624        3.10547        0.92096
C          2.00571        3.18238        0.61123
C          5.73171        3.83387        1.24310
C          4.45064        1.71677        0.63637
C          0.69042        3.92681        0.58679
C          2.02960        1.80535        0.32919
C          5.72614        0.90545        0.64271
C          3.22908        1.08591        0.34292
H          2.24820        5.75324        1.25860
H          3.74395        5.51411        2.20017
H          3.83783        5.88186        0.46361
H          5.73117        4.22266        2.28376
H          6.61778        3.18853        1.13503
H          5.87925        4.71290        0.58242
H         -0.13504        3.23957        0.32743
H          0.45033        4.38122        1.57016
H          0.68985        4.74776       -0.15940
H          1.08595        1.28932        0.09542
H          6.23407        0.93683        1.62853
H          5.51103       -0.15353        0.41177
H          6.45487        1.27054       -0.11009
H          3.22188        0.00793        0.12071
