15
1,2-PROPANEDIAMINE.gamout	Energy:    -229.6869810
C          3.23864        2.11060        1.69276
C          1.74743        2.06218        2.08848
C          1.00491        0.90349        1.40125
N          1.15834        3.39025        1.83040
N          3.39309        2.57297        0.30652
H          3.66150        1.08883        1.77145
H          3.77323        2.75082        2.43141
H          1.71261        1.90967        3.18836
H         -0.06532        0.89463        1.68772
H          1.07481        1.00628        0.29993
H          1.43938       -0.07881        1.68030
H          0.96346        3.49135        0.82630
H          0.25987        3.49497        2.31258
H          4.31124        2.32648       -0.07257
H          3.31860        3.59514        0.26704
