16
1,2-DIMETHOXYETHANE.gamout	Energy:    -308.6465710
C          1.75478        2.06291        3.91420
C          1.82565        1.17146        2.67915
O          2.72897        1.76513        1.76120
O          0.85163        1.46869        4.83190
C          2.87660        1.01355        0.57126
C          0.70260        2.22051        6.02148
H          1.41311        3.08428        3.62032
H          2.77149        2.16517        4.36344
H          0.80892        1.06948        2.22988
H          2.16701        0.15003        2.97316
H          3.27376       -0.00746        0.78059
H          1.90709        0.90952        0.02929
H          3.59367        1.55351       -0.07422
H          0.30460        3.24106        5.81153
H         -0.01437        1.68016        6.66680
H          1.67167        2.32569        6.56401
