10
1,2-BUTADIENE.gamout	Energy:    -155.8632021
C          2.73838        2.11603        2.30679
C          1.57952        2.09342        1.67407
C          0.93961        0.87144        1.05380
C          3.89546        2.14160        2.93905
H          1.02441        3.04645        1.58765
H          1.56948       -0.02651        1.19228
H         -0.05551        0.67461        1.50594
H          0.77586        1.02025       -0.03448
H          3.96248        1.97260        4.02730
H          4.84064        2.33733        2.40450
