18
1,2-DIBROMOCYCLOHEXANE.gamout	Energy:   -5382.7587131
Br        -3.31243        0.17892        2.80257
C         -3.87103        1.02521        1.08929
C         -5.08582        1.93042        1.26697
C         -4.17906       -0.08514        0.07484
Br        -4.75617        3.41681        2.55300
C         -5.50502        2.53597       -0.07935
C         -4.61303        0.49984       -1.28005
C         -5.81229        1.43841       -1.11217
H         -2.98954        1.61872        0.77929
H         -5.91726        1.36097        1.72599
H         -3.29098       -0.73451       -0.04147
H         -4.98997       -0.72083        0.48790
H         -4.68237        3.18148       -0.45183
H         -6.38151        3.19222        0.07542
H         -4.85492       -0.32455       -1.97904
H         -3.76415        1.05627       -1.73443
H         -6.07987        1.90432       -2.08093
H         -6.70262        0.85784       -0.78652
