24
1,2-DIMETHYLNAPHTHALENE.gamout	Energy:    -464.2008047
C          4.65634        3.90391        0.94022
C          4.65716        5.41435        0.98658
C          3.39572        3.20974        0.91249
C          5.85153        3.17252        0.92415
C          3.37125        1.76754        0.86871
C          2.14492        3.89791        0.92628
C          7.20110        3.85368        0.95221
C          5.80415        1.74750        0.88044
C          4.60504        1.06014        0.85354
C          2.11959        1.08832        0.84181
C          0.94100        3.20760        0.89921
C          0.92500        1.79000        0.85667
H          5.67480        5.83785        1.00639
H          4.13573        5.83925        0.10401
H          4.12235        5.78636        1.88480
H          2.12649        4.99397        0.95877
H          7.33173        4.47130        1.86419
H          8.01789        3.10897        0.93416
H          7.34129        4.52618        0.08157
H          6.75126        1.18743        0.86814
H          4.58885       -0.03900        0.82019
H          2.11930       -0.01083        0.80878
H         -0.00799        3.76281        0.91071
H         -0.03348        1.25086        0.83566
