11
1,2-DICHLOROPROPANE.gamout	Energy:   -1038.0694704
C          1.59101        0.72845        1.28319
C          2.38764        1.95563        0.84857
C          2.81611        2.87552        1.97941
Cl         3.87043        1.30907       -0.03038
Cl        -0.05126        1.22717        1.89790
H          2.09247        0.18764        2.10668
H          1.41566        0.04433        0.43612
H          1.82247        2.50728        0.07390
H          3.37186        3.74642        1.58884
H          3.45839        2.33863        2.70389
H          1.91434        3.24039        2.51020
