10
1,2-ETHANEDITHIOL.gamout	Energy:    -875.9912928
S          0.01313        1.24805        2.24884
C          1.42527        2.18137        1.52014
C          2.80511        1.57775        1.79265
S          3.08670       -0.08181        1.04130
H          0.15162        1.72910        3.51788
H          1.22119        2.20721        0.43209
H          1.38795        3.22792        1.88484
H          3.59856        2.26774        1.44062
H          2.95762        1.43130        2.87959
H          3.34289        0.36641       -0.22139
