16
1,2-BUTANEDIOL.gamout	Energy:    -308.6829871
O         -0.11894        1.65597        0.49232
O          2.41010        0.59095        0.50816
C          0.08917        0.31429        0.04559
C         -1.18596       -0.49107        0.30162
C          1.30266       -0.28878        0.75483
C         -2.40885        0.04436       -0.45136
H          0.30436        0.31738       -1.05228
H         -1.38383       -0.48972        1.39468
H         -0.99244       -1.54607        0.01211
H          1.09137       -0.36309        1.84557
H          1.50735       -1.30895        0.35806
H         -2.61893        1.09255       -0.16657
H         -2.25126        0.01563       -1.54880
H         -3.30689       -0.56121       -0.22409
H          0.76176        2.07828        0.51088
H          3.14870        0.36007        1.09545
