12
1,2-DIFLUOROBENZENE.gamout	Energy:    -430.4211871
F          1.79195        1.36048        0.00000
F          1.79237       -1.36008        0.00000
C          0.61183        0.70295       -0.00000
C          0.61213       -0.70280       -0.00000
C         -0.59334        1.41009       -0.00000
C         -0.59281       -1.41022       -0.00000
C         -1.80603        0.70169       -0.00000
C         -1.80558       -0.70185       -0.00000
H         -0.56595        2.50824        0.00000
H         -0.56560       -2.50842        0.00000
H         -2.75592        1.25262       -0.00007
H         -2.75526       -1.25307       -0.00007
