8
1,2-DIBROMOTETRAFLUOROETHANE.gamout	Energy:   -5623.4784590
C         39.02481       20.02365       -0.04405
C         37.45514       19.94684        0.00129
Br        39.71855       21.67303        0.75204
F         39.54807       18.95378        0.58293
F         39.39088       19.97507       -1.34526
F         36.93977       21.03040       -0.60908
F         37.08456       18.84834       -0.69375
Br        36.75567       19.81553        1.82485
