14
1,2-DIBROMOBUTANE.gamout	Energy:   -5305.3820628
C          2.40757        1.60299        0.09418
C          1.29347        0.57660       -0.06030
C          0.29325        0.78154       -1.19951
Br         2.28163       -1.15927       -0.40531
Br         1.81428        3.27171        1.01504
C         -0.70138        1.94012       -1.00510
H          3.21748        1.22057        0.73346
H          2.81118        1.92073       -0.88355
H          0.78857        0.39127        0.90621
H          0.86337        0.91335       -2.14239
H         -0.27522       -0.16176       -1.31388
H         -1.44224        1.93434       -1.82835
H         -1.25717        1.84010       -0.05170
H         -0.20514        2.92726       -0.99910
