9
1,3-DICHLOROPROPENE.gamout	Energy:   -1036.8347793
C          2.59297        0.49156        0.18734
C          1.35426       -0.32658        0.32365
C          1.23337       -1.53688       -0.25085
Cl         2.26374        2.05733       -0.72301
Cl        -0.18594       -2.53844       -0.08976
H          2.98834        0.81327        1.16941
H          3.38713       -0.03289       -0.37405
H          0.52702        0.08823        0.91985
H          2.01762       -1.99832       -0.86867
