22
1,3-DIMETHYLCYCLOHEXENE.gamout	Energy:    -313.0592433
C          2.58910        4.60641        1.29448
C          4.02000        4.65328        1.84917
C          4.83102        3.45448        1.34368
C          1.96094        3.23083        1.38770
C          2.70841        2.13253        1.63985
C          0.47007        3.16920        1.17798
C          4.21347        2.12121        1.80138
C          4.83695        0.92520        1.06146
H          1.94392        5.33961        1.82541
H          2.57864        4.93453        0.22894
H          4.50843        5.60864        1.57018
H          3.98475        4.63022        2.95982
H          4.85916        3.47465        0.23158
H          5.88405        3.51524        1.68552
H          2.20074        1.15598        1.71524
H          0.18806        3.62702        0.20520
H          0.09166        2.12986        1.19001
H         -0.06668        3.74361        1.96313
H          4.44349        1.99063        2.88692
H          4.62491        0.98347       -0.02531
H          5.93589        0.90839        1.19698
H          4.43160       -0.03478        1.43630
