10
1,3-BUTADIENE.gamout	Energy:    -155.8801995
C          1.01178        0.27893        0.97529
C          1.73263        0.75051        2.01966
C          3.13348        1.14897        1.94003
C          3.85330        1.62172        2.98450
H         -0.04314       -0.00845        1.08591
H          1.46062        0.16746       -0.02426
H          1.24947        0.84946        3.00776
H          3.61723        1.04918        0.95232
H          4.90819        1.90938        2.87451
H          3.40350        1.73401        3.98351
