14
1,3-DIMETHYLUREA.gamout	Energy:    -303.6901122
O         -0.02403        1.22812        0.29589
N          1.16811       -0.70954       -0.09731
N         -1.16798       -0.71700       -0.09964
C         -0.00480        0.01704        0.05045
C          2.47705       -0.09550        0.02546
C         -2.47187       -0.08667        0.02707
H          1.11264       -1.70549       -0.29928
H         -1.12156       -1.71246       -0.30317
H          3.06321       -0.18663       -0.91306
H          3.06600       -0.54471        0.85254
H          2.31766        0.97622        0.24307
H         -2.61401        0.35978        1.03259
H         -3.25057       -0.85391       -0.13283
H         -2.60851        0.72065       -0.72131
