22
1,3-DIMETHYL-4-ETHENYLBENZENE.gamout	Energy:    -388.0077921
C          5.57499        2.44261        2.05420
C          4.34922        1.97782        1.54268
C          5.74412        3.73929        2.57286
C          3.22467        2.85355        1.54119
C          4.25516        0.57236        0.99395
C          3.39053        4.15208        2.07878
C          1.92374        2.40689        1.00560
C          4.62058        4.59040        2.58051
C          7.08563        4.20751        3.08780
C          0.94271        3.19773        0.51373
H          6.44022        1.76130        2.04719
H          5.23797        0.06856        1.04165
H          3.53203       -0.04248        1.56931
H          3.91597        0.56499       -0.06175
H          2.51970        4.82154        2.12417
H          1.74971        1.31822        1.00222
H          4.71009        5.60443        2.99746
H          6.97227        4.85328        3.98014
H          7.73737        3.35465        3.35556
H          7.61725        4.80439        2.31682
H          1.06458        4.28897        0.44562
H         -0.00644        2.77622        0.14979
