18
1,4-NAPHTHOQUINONE.gamout	Energy:    -534.7585634
C          3.87010        4.41236        2.05130
O          4.60003        5.40848        2.07916
C          3.98587        3.31078        3.06055
C          2.83047        4.26433        0.99826
C          3.13080        2.17736        2.99989
C          4.95300        3.40199        4.07952
C          2.01312        3.18257        0.93886
C          2.09662        2.06686        1.92145
C          3.25791        1.15428        3.96002
C          5.07260        2.37866        5.03106
O          1.33523        1.09878        1.83403
C          4.22495        1.25476        4.97125
H          2.76563        5.08728        0.27015
H          5.60110        4.28948        4.10327
H          1.24354        3.07255        0.15980
H          2.58484        0.28762        3.89290
H          5.83034        2.45583        5.82447
H          4.32145        0.45401        5.71909
