12
1,4-BUTANOLIDE.gamout	Energy:    -306.2930486
O          0.03327       -1.12033       -0.06257
O          2.01926       -0.03311       -0.02476
C         -1.49190        0.70880       -0.21628
C         -0.10117        1.22923        0.17406
C         -1.37169       -0.79911        0.08231
C          0.81087        0.00977        0.01790
H         -2.32071        1.17705        0.34620
H         -1.67897        0.87272       -1.29581
H         -0.05064        1.54976        1.23610
H          0.27748        2.06519       -0.44032
H         -1.67786       -1.04872        1.12029
H         -1.93284       -1.44259       -0.61881
