24
1,4-DIMETHYLNAPHTHALENE.gamout	Energy:    -464.1999750
C          4.61450        4.81178        1.49558
C          4.63406        6.24935        1.01786
C          3.39615        4.09780        1.78907
C          5.82442        4.13859        1.65181
C          3.46459        2.71472        2.22936
C          2.10365        4.69859        1.66599
C          5.88813        2.79049        2.08316
C          4.73893        2.06152        2.37482
C          2.24344        2.02646        2.51221
C          0.93945        3.99763        1.95048
C          4.83216        0.62421        2.83217
C          1.00883        2.64581        2.37724
H          4.99796        6.31312       -0.02839
H          5.32010        6.85900        1.63929
H          3.64469        6.73524        1.04837
H          6.76384        4.67031        1.43383
H          2.02281        5.74364        1.34050
H          6.87260        2.30953        2.18984
H          2.28729        0.98065        2.84439
H         -0.03763        4.49151        1.84499
H          4.38797        0.48466        3.83958
H          5.88656        0.29648        2.87953
H          4.29554       -0.06251        2.14477
H          0.08575        2.09116        2.60110
