24
1,6-DIMETHYLNAPHTHALENE.gamout	Energy:    -464.2040162
C          5.54823        4.04462        1.16137
C          5.56026        5.55320        1.07468
C          4.30465        3.31795        1.14708
C          6.74174        3.33108        1.25622
C          4.32061        1.87394        1.23108
C          3.03341        3.96402        1.05220
C          6.75946        1.91179        1.33893
C          3.08304        1.16092        1.21589
C          5.57296        1.19491        1.32677
C          1.85281        3.23609        1.04029
C          1.85505        1.80885        1.12258
C          0.54838        1.04914        1.10618
H          6.59428        5.94297        1.09814
H          5.08550        5.91425        0.13835
H          5.00616        6.01635        1.91775
H          7.69544        3.88046        1.26750
H          2.98917        5.05969        0.98679
H          7.72287        1.38576        1.41269
H          3.11451        0.06171        1.28049
H          5.58037        0.09651        1.39038
H          0.89009        3.76533        0.96564
H         -0.10177        1.35391        1.95221
H         -0.01925        1.25109        0.17430
H          0.71113       -0.04224        1.17663
