17
1-BROMOPENTANE.gamout	Energy:   -2771.1473631
Br        -2.03138        0.08721        0.00000
C         -0.24118       -0.77744       -0.00000
C          0.88673        0.24436       -0.00000
C          2.27103       -0.43138       -0.00000
C          3.42806        0.58193       -0.00000
C          4.81394       -0.07403        0.00000
H         -0.23250       -1.41606        0.90137
H         -0.23250       -1.41606       -0.90137
H          0.78923        0.90103       -0.88894
H          0.78923        0.90103        0.88894
H          2.36468       -1.09381        0.88839
H          2.36468       -1.09381       -0.88839
H          3.32644        1.24439       -0.88625
H          3.32644        1.24439        0.88625
H          5.61965        0.68561        0.00000
H          4.95603       -0.71434        0.89414
H          4.95604       -0.71434       -0.89413
