11
1-BROMOPROPANE.gamout	Energy:   -2692.5764598
C         -0.13651       -0.09010       -0.06904
C          1.39869       -0.18931       -0.06903
C          2.04971        1.18798       -0.06898
Br         4.03195        1.07290       -0.06860
H         -0.58907       -1.10036       -0.06916
H         -0.50843        0.44679       -0.96481
H         -0.50845        0.44658        0.82685
H          1.74586       -0.75609       -0.95631
H          1.74585       -0.75617        0.81820
H          1.79126        1.77386        0.83190
H          1.79163        1.77373       -0.97005
