33
1-DECANOL.gamout	Energy:    -469.2183170
C          3.91209        4.03434        3.37779
C          5.31281        3.64632        2.88381
C          5.37737        3.30631        1.38784
C          3.86765        4.39975        4.86870
C          6.78081        2.90175        0.91370
C          2.46860        4.76997        5.38071
C          6.85740        2.58926       -0.58764
C          2.43860        5.15512        6.86781
C          8.25559        2.17646       -1.03759
C          1.03891        5.50964        7.38442
O          8.22555        1.91833       -2.44612
H          3.20835        3.19489        3.18291
H          3.53311        4.89135        2.77787
H          5.68015        2.77697        3.47343
H          6.02003        4.47792        3.09946
H          5.02636        4.18105        0.79695
H          4.66243        2.48401        1.16409
H          4.56363        5.24740        5.05671
H          4.26213        3.54717        5.46523
H          7.49540        3.71840        1.15963
H          7.11902        2.01618        1.49643
H          1.77714        3.91497        5.20962
H          2.06435        5.61154        4.77508
H          6.14797        1.77515       -0.84753
H          6.54480        3.47639       -1.17823
H          3.12517        6.01379        7.03313
H          2.85528        4.31596        7.46646
H          8.98264        2.98900       -0.80009
H          8.58063        1.26845       -0.47619
H          1.05851        5.78677        8.45668
H          0.60870        6.36496        6.82432
H          0.34179        4.65444        7.27126
H          9.11414        1.65618       -2.74057
