8
1-FLUORO-1,2,2-TRICHLOROETHANE.gamout	Energy:   -1557.4428268
C         17.97695       20.02901       -0.01396
C         19.28786       20.82978       -0.02433
Cl        16.53231       21.08069       -0.06662
Cl        18.00349       18.86653       -1.39830
F         19.34822       21.68785       -1.08128
Cl        19.45851       21.76065        1.51615
H         17.91844       19.42537        0.90892
H         20.15087       20.13611       -0.07095
