19
1-HEXANAL.gamout	Energy:    -310.8678473
C          2.60768        0.20639       -0.29150
C          1.30369       -0.55589       -0.22112
C          0.08314        0.37799       -0.08851
C         -1.25367       -0.37790       -0.05683
C         -2.47413        0.54495        0.07835
C         -3.80921       -0.20964        0.11177
O          3.56829        0.02435        0.43578
H          2.64622        1.00624       -1.09267
H          1.21407       -1.13530       -1.16942
H          1.36053       -1.28214        0.61374
H          0.18642        0.98602        0.83572
H          0.07619        1.10168       -0.93311
H         -1.35196       -0.98981       -0.98093
H         -1.24487       -1.10320        0.78654
H         -2.36710        1.15601        1.00069
H         -2.47729        1.27027       -0.76440
H         -4.66549        0.48536        0.21003
H         -3.95925       -0.80010       -0.81494
H         -3.84905       -0.91548        0.96641
