21
1-HEPTENE.gamout	Energy:    -274.9586535
C          3.34166        0.81171        1.30544
C          4.55734        1.74060        1.43166
C          5.89984        1.00026        1.53942
C          2.00491        1.56064        1.18957
C          7.09811        1.92102        1.65857
C          0.78923        0.63604        1.05641
C          8.37813        1.52010        1.75855
H          3.30689        0.12936        2.18409
H          3.47344        0.15432        0.41729
H          4.43000        2.39786        2.31983
H          4.59165        2.42162        0.55265
H          6.02846        0.34047        0.65275
H          5.87448        0.31191        2.41348
H          2.05071        2.24268        0.31264
H          1.87998        2.21912        2.07647
H          6.88139        3.00465        1.66041
H         -0.15278        1.21264        0.97097
H          0.69284       -0.03414        1.93510
H          0.87082       -0.00685        0.15611
H          8.64311        0.45052        1.76007
H          9.20475        2.24049        1.84198
