21
1-HEXANETHIOL.gamout	Energy:    -635.0213991
C         35.00714       10.02681       -0.00012
C         36.31076        9.21330        0.00009
C         36.07854        7.69331       -0.00014
C         35.23289       11.54633        0.00013
C         37.38868        6.89968        0.00009
C         33.93196       12.35926       -0.00009
S         37.01231        5.08454       -0.00019
H         34.39924        9.74480       -0.88800
H         34.39880        9.74458        0.88738
H         36.91730        9.49515        0.88872
H         36.91774        9.49537       -0.88817
H         35.47650        7.41026       -0.88994
H         35.47607        7.41007        0.88932
H         35.84277       11.82294        0.88741
H         35.84325       11.82318       -0.88675
H         37.98782        7.14321        0.89945
H         37.98827        7.14340       -0.89891
H         34.13359       13.44830        0.00009
H         33.31627       12.13195       -0.89423
H         33.31586       12.13176        0.89373
H         38.30416        4.64780        0.00014
