22
1-METHYL-2-ISOPROPENYLBENZENE.gamout	Energy:    -388.0042232
C          3.10453        2.78838        2.11746
C          3.28867        4.14191        2.47875
C          4.56166        4.73298        2.47203
C          4.23507        2.00609        1.74775
C          1.71373        2.22268        2.13464
C          5.50680        2.61694        1.75290
C          4.10243        0.54334        1.38207
C          5.67766        3.96575        2.10333
C          1.05827        2.05240        3.30398
C          1.07279        1.92529        0.79642
H          2.40672        4.73378        2.76540
H          4.67882        5.78895        2.75709
H          6.38652        2.01176        1.48344
H          3.30408        0.04828        1.96793
H          3.85482        0.41227        0.30748
H          5.05037        0.00271        1.56485
H          6.68300        4.41205        2.09571
H          0.02667        1.66950        3.33497
H          1.53850        2.28622        4.26537
H          0.04775        1.52742        0.91915
H          1.02253        2.84781        0.18113
H          1.66341        1.19126        0.21246
