24
1-METHYL-4-PROPYLBENZENE.gamout	Energy:    -389.2346096
C          1.87991        4.79520        1.51751
C          0.86596        5.90664        1.81481
C          3.16950        4.91193        2.36082
C          4.17537        3.81701        2.07105
C          5.13606        3.95757        1.04718
C          6.04561        2.92852        0.75797
C          6.03162        1.71541        1.47885
C          6.99360        0.59573        1.14904
C          5.07422        1.57719        2.50643
C          4.16526        2.60654        2.79606
H          1.42013        3.80175        1.70407
H          2.15143        4.80877        0.44065
H          0.55621        5.89343        2.87995
H          1.29467        6.90790        1.60488
H         -0.04772        5.79668        1.19827
H          3.63296        5.90431        2.17432
H          2.89634        4.89086        3.43756
H          5.17811        4.89578        0.47207
H          6.78951        3.07113       -0.04148
H          7.23604       -0.00824        2.04494
H          6.56085       -0.09554        0.39454
H          7.94228        0.98405        0.73015
H          5.04599        0.64714        3.09558
H          3.43497        2.47274        3.60933
