22
1-METHYLCYCLOHEXANOL.gamout	Energy:    -350.1725296
C         -3.84769        1.00971        1.11051
C         -5.09098        1.89810        1.29701
C         -4.09176       -0.09293        0.06547
C         -5.59716        2.51151       -0.03326
C         -5.81232        1.39153       -1.08105
C         -6.88291        3.31321        0.18555
O         -4.63895        3.47934       -0.52686
C         -4.57149        0.50125       -1.27091
H         -3.55541        0.56662        2.08388
H         -2.98073        1.63343        0.79474
H         -5.90996        1.28873        1.73713
H         -4.88312        2.72345        2.00681
H         -3.17298       -0.69524       -0.08681
H         -4.86646       -0.79195        0.45118
H         -6.66437        0.76162       -0.74565
H         -6.11122        1.86102       -2.03968
H         -7.69086        2.66353        0.57274
H         -6.70339        4.12822        0.91226
H         -7.21977        3.76691       -0.76612
H         -3.79115        3.02856       -0.68955
H         -4.79594       -0.30469       -1.99809
H         -3.74801        1.09413       -1.73018
