28
1-NONANAL.gamout	Energy:    -428.7236766
C          4.26327        2.39795        2.15445
C          3.27745        2.88214        3.22767
C          3.20898        1.96714        4.45884
C          4.32614        3.31811        0.92633
C          2.22284        2.44893        5.53270
C          5.31565        2.82409       -0.15140
C          2.15515        1.53278        6.76418
C          5.38373        3.76967       -1.32893
C          1.16944        2.01396        7.83588
O          5.12627        3.47582       -2.48324
H          3.98165        1.37208        1.83148
H          5.27902        2.30899        2.59942
H          2.26342        2.97203        2.77922
H          3.55885        3.90960        3.54794
H          4.22361        1.87720        4.90654
H          2.92863        0.93967        4.13751
H          4.61076        4.34343        1.24874
H          3.31395        3.40590        0.47686
H          1.20829        2.53839        5.08437
H          2.50260        3.47692        5.85364
H          5.04951        1.81246       -0.51571
H          6.33623        2.77469        0.29329
H          3.17167        1.44415        7.20572
H          1.87922        0.50687        6.43659
H          5.68703        4.82895       -1.06708
H          1.44191        3.02279        8.20750
H          0.13818        2.07670        7.43248
H          1.14906        1.32899        8.70582
