13
1-PENTYNE.gamout	Energy:    -195.1385571
C          0.94698        1.76908        2.12769
C          2.00640        0.64049        2.19485
C          3.39081        1.11980        2.15325
C          0.98478        2.56726        0.81991
C          4.54214        1.53285        2.11137
H          1.09465        2.44884        2.99174
H         -0.05216        1.30413        2.25989
H          1.86024        0.04593        3.12235
H          1.84581       -0.06423        1.34898
H          0.22207        3.37016        0.81834
H          1.97696        3.03740        0.67135
H          0.78897        1.91171       -0.05319
H          5.56102        1.88888        2.07353
