22
1-PROPENYLCYCLOPENTANE.gamout	Energy:    -313.0448671
C         -3.00547       -1.34728        1.00275
C         -4.09369       -0.74141        0.07242
C         -1.84302       -0.31839        0.99411
C         -3.97713        0.76832        0.36075
C         -2.45567        1.01717        0.46528
H         -3.43088       -1.44954        2.02282
H         -2.69140       -2.35913        0.68013
H         -1.40892       -0.19854        2.00554
H         -1.01711       -0.65584        0.33781
H         -4.46604        1.39456       -0.41046
H         -4.47337        0.98866        1.32995
H         -2.21591        1.88106        1.11452
H         -2.04648        1.25661       -0.53719
C         -5.45170       -1.37637        0.22649
H         -3.75771       -0.91576       -0.97886
C         -6.61263       -0.74352        0.49293
C         -7.95141       -1.41219        0.64119
H         -8.39319       -1.21301        1.64101
H         -7.87991       -2.50934        0.50915
H         -8.67950       -1.02228       -0.10193
H         -5.47494       -2.47497        0.09700
H         -6.60685        0.35436        0.61174
