29
2,2,4-TRIMETHYLHEXANE.gamout	Energy:    -354.7607678
C          3.97030        2.62272        2.33101
C          5.29436        3.35677        1.96109
C          3.19736        1.92972        1.17436
C          4.98758        4.57142        1.05706
C          5.94725        3.85493        3.26933
C          6.28243        2.41421        1.23962
C          1.67681        2.22695        1.22069
C          3.47604        0.41631        1.10663
C          0.93787        1.72325        2.46939
H          4.19374        1.87753        3.12469
H          3.31353        3.37759        2.81402
H          3.55490        2.36754        0.21754
H          5.91605        5.11821        0.79700
H          4.50783        4.26527        0.10689
H          4.30772        5.28414        1.56549
H          5.26835        4.53398        3.82341
H          6.19835        3.00663        3.93695
H          6.88322        4.41007        3.05903
H          6.52751        1.53550        1.86831
H          5.87503        2.04864        0.27749
H          7.22950        2.94455        1.01627
H          1.53258        3.32477        1.12949
H          1.20606        1.78274        0.31775
H          4.55339        0.20641        0.97112
H          3.16242       -0.09199        2.04057
H          2.93033       -0.05515        0.26484
H          1.00067        0.62183        2.56756
H          1.34927        2.16756        3.39758
H         -0.13641        1.98857        2.42304
