32
2,2,3,5-TETRAMETHYLHEXANE.gamout	Energy:    -394.0446013
C          1.66044        0.16283       -1.17682
C          2.46746        1.23765       -0.42969
C          3.58444        0.59115        0.42238
C          2.99891        2.30300       -1.40300
C          4.34355        1.56603        1.36927
C          4.32394        1.11829        2.87769
C          5.75544        1.86283        0.82723
C          4.95752       -0.27687        3.07067
C          5.09649        2.14238        3.74020
C          2.86050        1.09464        3.37600
H          1.23867       -0.58398       -0.47555
H          0.82116        0.61225       -1.74303
H          2.30093       -0.38085       -1.90210
H          1.77882        1.74395        0.28404
H          3.11988       -0.22915        1.00517
H          4.30571        0.08529       -0.25569
H          3.53387        3.11728       -0.87737
H          2.17096        2.76563       -1.97530
H          3.70140        1.85099       -2.13377
H          3.78795        2.53082        1.35828
H          6.25984        2.67588        1.38103
H          5.70022        2.17067       -0.23395
H          6.40300        0.96439        0.87126
H          4.93273       -0.56787        4.13942
H          4.41877       -1.05892        2.50193
H          6.01700       -0.29308        2.74899
H          4.97259        1.91190        4.81676
H          4.71974        3.17192        3.57308
H          6.18157        2.13578        3.52544
H          2.39650        2.09629        3.27927
H          2.23534        0.37430        2.81457
H          2.81830        0.80586        4.44481
