29
2,2,3,3-TETRAMETHYLPENTANE.gamout	Energy:    -354.7554054
C          1.96794        2.17028        2.44657
C          2.90218        3.42381        2.09595
C          4.26340        3.30158        2.85307
C          3.18475        3.48090        0.57591
C          2.20318        4.74364        2.50094
C          1.41457        2.27232        3.88901
C          0.75800        2.09103        1.48431
C          2.74599        0.83633        2.33311
C          5.16390        4.54576        2.84222
H          4.06823        3.02609        3.90994
H          4.83170        2.45418        2.41874
H          2.27206        3.71289       -0.00396
H          3.91924        4.27633        0.34797
H          3.60150        2.52848        0.19471
H          2.74578        5.61640        2.09119
H          1.17026        4.79627        2.10796
H          2.15466        4.87097        3.59923
H          2.21917        2.39616        4.63952
H          0.70579        3.11350        4.00666
H          0.86589        1.34490        4.14641
H          0.18761        3.03903        1.44788
H          1.06308        1.83308        0.45276
H          0.05866        1.30256        1.82573
H          2.05049       -0.01655        2.45852
H          3.52285        0.74086        3.11461
H          3.23435        0.71809        1.34636
H          4.70626        5.39526        3.38406
H          6.13079        4.32626        3.33563
H          5.39509        4.88640        1.81366
