32
2,2,4,5-TETRAMETHYLHEXANE.gamout	Energy:    -394.0453826
C          0.78395        0.96696        1.10282
C          1.91336        1.31371        0.11624
C          2.85166        0.10127       -0.03442
C          1.38826        1.80853       -1.26807
C          0.24346        2.83016       -1.12329
C          2.53456        2.39722       -2.13846
C          2.58558        1.99337       -3.64333
C          3.72989        2.79014       -4.30973
C          2.88227        0.48399       -3.78761
C          1.26233        2.32360       -4.36662
H          1.19958        0.55345        2.04272
H          0.17225        1.84755        1.37236
H          0.10716        0.19797        0.67415
H          2.50018        2.15438        0.55579
H          3.69487        0.29911       -0.72189
H          3.28150       -0.19199        0.94345
H          2.29312       -0.77232       -0.43027
H          0.97679        0.91113       -1.78313
H         -0.04800        3.24795       -2.10418
H         -0.66418        2.38620       -0.67344
H          0.56025        3.68046       -0.48355
H          2.48691        3.50633       -2.08146
H          3.51738        2.12718       -1.69992
H          3.83251        2.51995       -5.37983
H          3.54374        3.88158       -4.25268
H          4.70120        2.58616       -3.81555
H          2.94270        0.19744       -4.85643
H          2.09318       -0.13797       -3.32213
H          3.84781        0.21814       -3.31339
H          1.02373        3.40397       -4.30021
H          1.33255        2.06322       -5.44181
H          0.40865        1.75710       -3.94659
