26
2,2-DIMETHYLHEXANE.gamout	Energy:    -315.4789119
C          3.42508        2.63044        2.43765
C          2.06003        1.88259        2.42760
C          4.64807        1.85519        1.92320
C          0.98542        2.84609        2.97840
C          2.11303        0.62946        3.32875
C          1.67377        1.47254        0.98906
C          5.97455        2.63275        2.03505
C          6.06445        3.87497        1.13771
H          3.30102        3.56249        1.84560
H          3.62906        2.95896        3.48148
H          4.75105        0.90750        2.49123
H          4.49471        1.56405        0.86159
H          0.90817        3.76042        2.35601
H         -0.01208        2.36290        2.99460
H          1.22567        3.16132        4.01391
H          2.41601        0.89225        4.36263
H          1.11893        0.14267        3.38362
H          2.82836       -0.12479        2.94742
H          1.64909        2.35447        0.31780
H          0.66900        1.00506        0.96976
H          2.38683        0.74098        0.56226
H          6.80817        1.94403        1.78290
H          6.13406        2.92618        3.09573
H          5.90325        3.60848        0.07275
H          5.30949        4.63910        1.40908
H          7.05989        4.35482        1.21545
