32
2,2-DIMETHYL-3-ETHYLHEXANE.gamout	Energy:    -394.0429835
C          0.14078       -0.13740       -0.68619
C          0.94456        1.16805       -0.67564
C          2.18221        1.11059        0.23520
C          3.03151        2.41637        0.27207
C          2.86560        3.24092        1.60489
C          4.50656        2.11114       -0.08513
C          3.48718        2.50091        2.81031
C          3.54372        4.62306        1.45699
C          1.36494        3.49023        1.88229
C          4.70707        1.71979       -1.55576
H         -0.74053       -0.07104       -1.35409
H          0.76254       -0.98759       -1.03386
H         -0.22704       -0.38886        0.32967
H          0.29188        2.00706       -0.35640
H          1.27247        1.41507       -1.70825
H          2.81764        0.26437       -0.10136
H          1.86091        0.83275        1.26068
H          2.64298        3.08568       -0.53009
H          5.14215        2.99081        0.13534
H          4.87668        1.29371        0.56987
H          3.33099        3.08039        3.74202
H          3.02989        1.50335        2.95987
H          4.57802        2.35986        2.68582
H          3.34483        5.25213        2.34762
H          3.15658        5.16609        0.57095
H          4.64293        4.54813        1.35383
H          0.88665        4.02659        1.03827
H          0.80705        2.54969        2.05079
H          1.23777        4.11368        2.78936
H          5.76912        1.49293       -1.77283
H          4.11509        0.82314       -1.82636
H          4.39336        2.54189       -2.23061
