23
2,2-DIMETHYLPENTANE.gamout	Energy:    -276.1948388
C          3.26201        2.35059        2.10886
C          1.72217        2.19351        1.94779
C          3.76805        3.65277        2.75035
C          1.44444        0.80603        1.32893
C          1.16154        3.28260        1.00566
C          1.01692        2.28329        3.32004
C          5.29982        3.70879        2.84633
H          3.63820        1.49215        2.70858
H          3.72704        2.23884        1.10448
H          3.40890        4.52553        2.16638
H          3.33589        3.75935        3.76654
H          1.82977       -0.00495        1.97915
H          0.35718        0.64079        1.19028
H          1.93176        0.70717        0.33816
H          0.07469        3.13969        0.84290
H          1.30212        4.29997        1.41897
H          1.65929        3.24535        0.01559
H          1.14454        3.28066        3.78244
H         -0.07139        2.10410        3.21297
H          1.41705        1.52647        4.02457
H          5.76442        3.64348        1.84188
H          5.64203        4.65123        3.31626
H          5.69397        2.86746        3.45166
