18
2,2-DIMETHYL-1-PROPANOL.gamout	Energy:    -272.7944888
C         -0.49377       -0.89861        1.26384
C         -0.45298       -0.01378        0.00001
C          0.83265        0.84003       -0.00001
O          1.98244       -0.01171        0.00001
C         -0.49378       -0.89870       -1.26376
C         -1.65507        0.95430        0.00000
H         -0.46992       -0.28222        2.18532
H         -1.42194       -1.50339        1.28573
H          0.36996       -1.58872        1.29456
H          0.83184        1.49758       -0.90082
H          0.83181        1.49759        0.90079
H          2.78417        0.53671        0.00003
H         -1.42193       -1.50349       -1.28560
H         -0.46992       -0.28240       -2.18529
H          0.36995       -1.58881       -1.29443
H         -1.65051        1.60562        0.89721
H         -1.65052        1.60564       -0.89719
H         -2.60864        0.39069        0.00001
