29
2,3,3-TRIMETHYLHEXANE.gamout	Energy:    -354.7572205
C          4.28705        3.34823        2.12141
C          2.73164        3.35209        2.03694
C          4.89292        2.15609        2.95878
C          4.78793        4.70206        2.67087
C          4.81295        3.22306        0.66941
C          1.90851        3.48753        3.32881
C          4.25259        0.79405        2.63149
C          4.93521        2.35989        4.48683
C          0.41113        3.67200        3.04531
H          2.40020        2.43864        1.49833
H          2.45354        4.19819        1.36945
H          5.95643        2.09840        2.63250
H          4.39713        4.92826        3.68043
H          5.89501        4.72207        2.73073
H          4.47642        5.52961        2.00256
H          5.91957        3.28100        0.64462
H          4.51441        2.26799        0.19494
H          4.41910        4.04344        0.03692
H          2.27729        4.34835        3.92390
H          2.04417        2.59189        3.96840
H          4.83144       -0.02526        3.10094
H          3.21812        0.72730        3.02406
H          4.21615        0.58813        1.54482
H          5.41691        1.48444        4.96621
H          5.52168        3.25135        4.77634
H          3.92650        2.45895        4.93006
H          0.22807        4.58621        2.44432
H          0.00205        2.81298        2.47557
H         -0.17404        3.76350        3.98096
