32
2,3,3-TRIMETHYLHEPTANE.gamout	Energy:    -394.0426395
C         -0.25225       -0.04604        0.45207
C          0.62922        1.20116        0.30973
C          2.12046        0.87475        0.12430
C          2.98466        2.13559       -0.03661
C          4.53690        1.99745       -0.03540
C          5.11103        1.11500       -1.21037
C          5.11175        3.42782       -0.18675
C          5.01760        1.45827        1.32986
C          4.47926        1.43637       -2.57777
C          5.09837       -0.40927       -0.97502
H         -1.31881        0.21865        0.58970
H         -0.17864       -0.69167       -0.44665
H          0.05978       -0.65416        1.32529
H          0.51041        1.84735        1.20648
H          0.27961        1.81045       -0.55167
H          2.23022        0.21403       -0.76044
H          2.47056        0.28178        0.99547
H          2.72902        2.83109        0.79387
H          2.67386        2.66396       -0.96277
H          6.18522        1.40145       -1.27669
H          6.21876        3.41863       -0.13054
H          4.73944        4.08574        0.62354
H          4.82718        3.89700       -1.14874
H          4.59353        0.46722        1.57739
H          6.12200        1.36186        1.35270
H          4.72803        2.15344        2.14314
H          5.04003        0.93215       -3.38891
H          4.47746        2.51943       -2.80399
H          3.43244        1.07626       -2.63388
H          5.56331       -0.92329       -1.83976
H          5.67317       -0.70134       -0.07687
H          4.07435       -0.81403       -0.86869
