16
2,3-HEXADIENE.gamout	Energy:    -234.4375777
C          1.10902       -0.27085       -0.19794
C          2.50513        0.23948        0.08400
C          2.82695        1.12981        1.00617
C          3.14420        2.01703        1.93283
C          3.53938        1.69287        3.36148
C          4.96484        2.16012        3.70931
H          1.05684       -1.37209       -0.06620
H          0.81704       -0.05669       -1.24754
H          0.36569        0.19670        0.47392
H          3.31810       -0.17347       -0.54346
H          3.14441        3.08926        1.65523
H          3.44440        0.60126        3.52677
H          2.81849        2.18453        4.05160
H          5.71492        1.65168        3.07201
H          5.20544        1.94112        4.76853
H          5.07844        3.25255        3.55563
