24
2,3-DIMETHYL-2-HEXENE.gamout	Energy:    -314.2539376
C          4.04162        3.17397        3.08273
C          2.99380        2.92128        2.00781
C          2.03116        1.95723        2.09962
C          3.11770        3.87648        0.83768
C          5.45562        2.64009        2.74181
C          1.89597        1.00695        3.27197
C          0.96524        1.71874        1.05131
C          5.54175        1.11086        2.66450
H          4.11856        4.27315        3.23666
H          3.72822        2.75542        4.05834
H          2.85843        4.91120        1.15279
H          2.48014        3.61867       -0.02442
H          4.16481        3.92032        0.47170
H          6.16345        3.01351        3.51176
H          5.79602        3.07876        1.78003
H          0.89047        1.10318        3.73657
H          1.97600       -0.04713        2.92869
H          2.65017        1.15540        4.06161
H         -0.04718        1.84058        1.49489
H          1.01096        0.67314        0.67624
H          1.02741        2.39244        0.18047
H          4.84967        0.71094        1.89735
H          5.27436        0.64484        3.63486
H          6.56577        0.77802        2.40515
