14
2,3-DICHLOROBUTANE.gamout	Energy:   -1077.3558495
C          0.50145        1.07734        0.30168
C          2.03290        1.01150        0.34041
C          2.61140       -0.19289        1.06983
Cl         2.74926        1.11997       -1.34593
C         -0.07536        2.31185       -0.37721
Cl        -0.21559       -0.43604       -0.44869
H          0.16735        1.03588        1.35968
H          2.36425        1.94938        0.83320
H          3.71164       -0.11496        1.13269
H          2.20249       -0.23126        2.10071
H          2.34655       -1.13221        0.55168
H         -1.17562        2.32917       -0.27816
H          0.33532        3.22346        0.10409
H          0.18962        2.33198       -1.44980
