20
2,3-DIMETHYLBUTANE.gamout	Energy:    -236.9078034
C          3.22532        2.34920        1.88131
C          3.80745        3.76455        1.72474
C          4.29191        1.30938        1.49636
C          1.90606        2.16407        1.08385
C          1.32448        0.74863        1.23905
C          0.83862        3.20184        1.47100
H          2.97597        2.20006        2.95803
H          3.13403        4.54425        2.12499
H          3.99660        3.99457        0.65520
H          4.77268        3.85466        2.26088
H          4.52132        1.36661        0.41161
H          3.97470        0.27486        1.72222
H          5.23497        1.49397        2.04697
H          2.15479        2.31477        0.00720
H          1.99791       -0.03045        0.83774
H          0.35934        0.65933        0.70293
H          1.13550        0.51730        2.30836
H          0.60826        3.14098        2.55538
H         -0.10367        3.01828        0.91887
H          1.15533        4.23722        1.24882
