18
2,3-DIMETHYL-2-BUTENE.gamout	Energy:    -235.6850377
C          1.94225        2.20360        2.01344
C          3.21345        2.11934        1.52338
C          4.19083        3.27618        1.49443
C          3.81530        0.85635        0.94391
C          0.96471        1.04688        2.04208
C          1.34055        3.46654        2.59316
H          4.51926        3.48116        0.45207
H          3.79426        4.21710        1.91077
H          5.11213        3.01887        2.06148
H          3.13293       -0.00961        0.93939
H          4.14740        1.02808       -0.10331
H          4.72643        0.56283        1.50987
H          0.63636        0.84148        3.08439
H          0.04338        1.30464        1.47527
H          1.36099        0.10608        1.62519
H          1.00713        3.29415        3.63985
H          2.02349        4.33205        2.59923
H          0.43025        3.76117        2.02641
