24
2,3-DIMETHYL-3-PENTANOL.gamout	Energy:    -351.3658935
C          2.30610       -0.79921        0.10523
C          1.19775        0.18564        0.52105
C          1.59056        1.61604        0.10295
C         -0.21936       -0.23823       -0.01418
C         -1.30742        0.74021        0.50890
C         -2.74838        0.41758        0.09051
O         -0.22432       -0.24643       -1.46197
C         -0.54854       -1.68379        0.38430
H          3.29570       -0.42503        0.43229
H          2.17148       -1.80090        0.55339
H          2.32990       -0.91523       -0.99618
H          1.12048        0.16883        1.63156
H          1.62057        1.71774       -1.00219
H          0.90482        2.38608        0.50273
H          2.60580        1.85930        0.47129
H         -1.23171        0.78978        1.61622
H         -1.05502        1.75817        0.14597
H         -3.13356       -0.49483        0.58447
H         -3.42654        1.24891        0.36286
H         -2.81467        0.26471       -1.00395
H         -0.14792        0.67256       -1.77570
H         -0.51740       -1.80205        1.48484
H         -1.55535       -1.96483        0.02803
H          0.16902       -2.38964       -0.06912
