21
2,3-DIMETHYL-2-BUTANOL.gamout	Energy:    -312.0832193
C          1.36170        1.31365       -0.40646
C          0.62034        0.04201        0.04913
C          0.71630       -0.11739        1.57759
C         -0.85059        0.02685       -0.47606
C         -1.57861       -1.29136       -0.15734
C         -1.68365        1.23414       -0.00938
O          1.23290       -1.10333       -0.59418
H          2.43802        1.23668       -0.15068
H          1.27543        1.44030       -1.50269
H          0.97204        2.22320        0.08979
H          0.20903        0.71207        2.10785
H          0.26914       -1.07342        1.90661
H          1.77826       -0.10952        1.89783
H         -0.74822        0.09156       -1.58171
H         -1.79273       -1.38552        0.92653
H         -2.55235       -1.32602       -0.68430
H         -0.98164       -2.16552       -0.47259
H         -1.23811        2.20129       -0.30935
H         -2.69691        1.18616       -0.45325
H         -1.81100        1.24088        1.09209
H          2.16419       -1.15124       -0.31356
