19
2,4-XYLENOL.gamout	Energy:    -385.8444670
C          3.33179        5.41159        0.67746
C          3.32696        3.90799        0.80420
C          4.55118        3.20563        0.93196
C          2.14063        3.15438        0.80141
O          5.70384        3.95943        0.93336
C          4.56519        1.80621        1.05039
C          2.12191        1.74608        0.91890
C          3.35834        1.08562        1.04345
C          0.81241        0.98717        0.90695
H          2.30243        5.80444        0.58631
H          3.81170        5.88785        1.55669
H          3.91239        5.73733       -0.20948
H          1.18484        3.69451        0.70258
H          6.47405        3.37166        1.02709
H          5.52496        1.27339        1.14958
H          3.38568       -0.01073        1.13746
H          0.26703        1.13404       -0.04836
H          0.97481       -0.09931        1.03680
H          0.13949        1.32764        1.72073
