15
2,4-DICHLOROTOLUENE.gamout	Energy:   -1190.3929653
Cl         7.34542        3.27469       -0.82198
C          6.30901        1.87039       -0.57777
C          6.89609        0.60648       -0.34067
C          4.91995        2.06443       -0.62892
C          8.39037        0.41224       -0.28861
C          6.00651       -0.47311       -0.15361
C          4.08082        0.95702       -0.43635
C          4.61272       -0.31911       -0.19748
Cl         2.33738        1.18146       -0.49652
H          4.50321        3.06186       -0.81529
H          8.86919        0.71521       -1.24183
H          8.84855        1.03083        0.50946
H          8.64096       -0.64655       -0.09518
H          6.42510       -1.47329        0.03349
H          3.94674       -1.17907       -0.04803
