24
2,4-DIMETHYL-1-HEXENE.gamout	Energy:    -314.2489957
C         -0.27000       19.14768       -0.14797
C          1.02986       19.79980        0.34447
C          1.22128       21.29148       -0.02350
C          0.41464       22.26040        0.88552
C          2.71239       21.67078        0.02963
C         -1.09951       22.21796        0.80143
C         -1.86303       21.95877        1.88542
C         -1.70702       22.54982       -0.54181
H         -0.29257       18.07071        0.11056
H         -1.16410       19.61925        0.30025
H         -0.35652       19.22520       -1.25109
H          1.88628       19.22835       -0.07254
H          1.10855       19.69367        1.44908
H          0.88188       21.43229       -1.07444
H          0.72828       22.09305        1.93783
H          0.73121       23.29625        0.62656
H          2.87293       22.73037       -0.25237
H          3.31031       21.04200       -0.65884
H          3.12251       21.53135        1.05168
H         -2.96178       21.96525        1.82988
H         -1.41111       21.73150        2.86245
H         -1.34075       23.53390       -0.90375
H         -1.41556       21.80507       -1.31164
H         -2.81143       22.58130       -0.49901
