17
2,4-DINITROPHENOL.gamout	Energy:    -716.0386643
C          6.38362        1.89541       -0.66511
C          6.91521        0.64624       -0.35039
C          4.98384        2.11238       -0.72827
C          6.03683       -0.41822       -0.07851
C          4.65122       -0.24462       -0.11816
N          6.58660       -1.74679        0.25866
C          4.12424        1.00913       -0.45111
N          2.64769        1.12947       -0.49818
O          4.47369        3.32600       -1.01085
O          2.16472        2.05518       -1.15351
O          1.99769        0.27436        0.11396
O          5.78491       -2.65937        0.48274
O          7.81837       -1.85972        0.29499
H          7.05788        2.74102       -0.87200
H          7.99824        0.47551       -0.30670
H          3.97370       -1.07694        0.10779
H          5.19698        3.97153       -1.12475
