24
2,4-DIMETHYL-CIS-3-HEXENE.gamout	Energy:    -314.2540459
C          0.37345       19.79002       -0.06722
C          0.96600       20.89326        0.83410
C          0.95843       22.27330        0.19941
C          2.05043       22.85880       -0.34873
C         -0.37705       22.98452        0.20105
C          3.46070       22.32636       -0.46023
C          3.86653       22.18878       -1.94462
C          4.44764       23.24048        0.29861
H          0.37039       18.81264        0.45531
H         -0.67110       20.01709       -0.35812
H          0.96414       19.68017       -0.99770
H          1.99567       20.60709        1.12504
H          0.37941       20.93740        1.77807
H          1.91746       23.86801       -0.78346
H         -0.73689       23.15385        1.23924
H         -0.31724       23.96452       -0.30844
H         -1.16107       22.38304       -0.30664
H          3.51288       21.31675       -0.00215
H          4.90227       21.80507       -2.04189
H          3.18927       21.49871       -2.48387
H          3.82271       23.17332       -2.45504
H          5.48700       22.86426        0.21227
H          4.18942       23.30321        1.37358
H          4.42594       24.27035       -0.11440
