32
2,4-DIMETHYL-3-ISOPROPYLPENTANE.gamout	Energy:    -394.0370750
C          0.64109       28.80557       -0.55047
C          1.47972       29.82311        0.24625
C          1.06543       31.32515        0.10178
C          1.51153       29.40987        1.73194
C          1.75679       32.07996       -1.08211
C         -0.47099       31.59467        0.23060
C          3.19155       32.49331       -0.69731
C          1.78245       31.34730       -2.43759
C         -0.72973       32.95655        0.90420
C         -1.28813       31.50300       -1.07349
H          0.61491       29.02355       -1.63289
H          1.06203       27.78812       -0.42810
H         -0.40426       28.76760       -0.18340
H          2.52438       29.74915       -0.12824
H          1.49495       31.80651        1.00708
H          2.19966       30.05179        2.31628
H          1.84510       28.35980        1.84839
H          0.50366       29.48933        2.18823
H          1.18509       33.02253       -1.22724
H         -0.87178       30.81836        0.91904
H          3.67525       33.06754       -1.51230
H          3.19973       33.12387        0.21336
H          3.82739       31.60593       -0.49754
H          2.23274       31.99945       -3.21182
H          0.77714       31.05980       -2.79308
H          2.40400       30.43098       -2.38735
H         -1.81504       33.13855        1.03404
H         -0.25441       33.01376        1.90335
H         -0.32792       33.79042        0.29204
H         -2.36625       31.63735       -0.85589
H         -1.17348       30.52952       -1.58167
H         -1.00294       32.30029       -1.78861
