24
2,5-DIMETHYL-TRANS-3-HEXENE.gamout	Energy:    -314.2533286
C          3.39549        3.72591        2.25409
C          2.98973        2.45586        2.05919
C          4.79625        4.24903        2.03423
C          1.58891        1.93290        2.27914
C          5.39849        4.78378        3.35062
C          4.81364        5.33586        0.93791
C          1.57146        0.84597        3.37537
C          0.98648        1.39834        0.96276
H          2.65324        4.46861        2.60657
H          3.73191        1.71309        1.70672
H          5.42365        3.39804        1.68830
H          0.96167        2.78395        2.62519
H          4.79461        5.62604        3.74836
H          5.43173        3.99574        4.12759
H          6.43033        5.15733        3.19274
H          5.84281        5.71084        0.76770
H          4.42341        4.94555       -0.02176
H          4.18440        6.20120        1.23300
H          1.96217        1.23604        4.33494
H          0.54219        0.47139        3.54587
H          2.20026       -0.01959        3.07997
H          1.59032        0.55617        0.56479
H          0.95308        2.18650        0.18591
H         -0.04532        1.02470        1.12074
