22
2,5-DIMETHYL-2,4-HEXADIENE.gamout	Energy:    -313.0406237
C          2.95878        2.13465        1.83439
C          3.73512        3.28420        1.40326
C          1.63245        1.89910        1.60107
C          5.06151        3.51964        1.63625
C          0.72344        2.82555        0.83172
C          0.96993        0.64575        2.11968
C          5.97073        2.59294        2.40503
C          5.72392        4.77307        1.11770
H          3.49318        1.36363        2.41346
H          3.20060        4.05543        0.82456
H         -0.13943        3.13512        1.46059
H          0.29035        2.30568       -0.05083
H          1.22692        3.73955        0.47213
H          0.53487        0.05073        1.28649
H          0.12342        0.89057        2.79839
H          1.67804       -0.00077        2.67125
H          6.83326        2.28337        1.77568
H          5.46736        1.67891        2.76465
H          6.40433        3.11260        3.28745
H          6.15958        5.36774        1.95083
H          5.01562        5.41987        0.56673
H          6.57000        4.52834        0.43842
