25
2,6-DIMETHYL-1,5-HEPTADIENE.gamout	Energy:    -352.3087112
C          1.52322        1.16855        3.93165
C          1.87701        1.47695        2.66553
C          3.24217        2.01199        2.27851
C          0.91574        1.30727        1.51089
C          4.26229        2.21389        3.40330
C          5.61631        2.76829        2.90196
C          6.37310        1.84807        1.96024
C          6.61934        2.19624        0.67848
C          6.85193        0.53659        2.53856
H          2.20923        1.28736        4.78180
H          0.51899        0.78142        4.15818
H          3.09555        2.98026        1.74463
H          3.67435        1.33831        1.50407
H          0.74295        2.27510        0.99288
H          1.33139        0.61458        0.74791
H         -0.06215        0.91241        1.84253
H          3.85227        2.91955        4.15495
H          4.42567        1.25571        3.93922
H          6.25559        2.97499        3.78883
H          5.44955        3.74418        2.40079
H          7.17806        1.53611       -0.00180
H          6.27094        3.15731        0.27170
H          7.49293        0.70964        3.42923
H          6.00238       -0.09032        2.88228
H          7.43086       -0.05057        1.80183
