26
2,6-DIETHYLANILINE.gamout	Energy:    -444.5601886
C          6.50884        1.82465       -0.50672
C          6.85071        0.51145       -0.13439
C          5.18540        2.28685       -0.44377
C          5.82072       -0.36574        0.31557
C          8.29050        0.04041       -0.22306
C          4.47435        0.09521        0.40003
N          6.14544       -1.65795        0.75121
C          4.18400        1.41656        0.01368
C          3.36598       -0.82140        0.88384
C          2.81405       -1.76749       -0.20468
C          8.61941       -0.73786       -1.51587
H          7.30932        2.50000       -0.84715
H          4.93867        3.31849       -0.73308
H          8.95719        0.92394       -0.16166
H          8.54296       -0.58022        0.66450
H          5.39027       -2.33990        0.77390
H          7.01628       -2.05349        0.40344
H          3.14298        1.76946        0.08285
H          3.71571       -1.41565        1.75644
H          2.53414       -0.19805        1.26908
H          2.01619       -2.42152        0.20027
H          2.38959       -1.18529       -1.04585
H          3.60400       -2.41921       -0.63030
H          9.67669       -1.07051       -1.52304
H          7.98063       -1.63613       -1.63926
H          8.45220       -0.09977       -2.40544
