17
2-AMINO-2-METHYL-1-PROPANOL.gamout	Energy:    -288.8278002
O          1.98468        0.36455       -0.25934
N         -1.37938       -0.21277        1.26055
C         -0.37520       -0.10388        0.18288
C          1.00880        0.25055        0.78165
C         -0.83460        1.00328       -0.78293
C         -0.30489       -1.46070       -0.54006
H          1.29670       -0.54510        1.50933
H          0.91837        1.21049        1.34405
H         -0.12068        1.11256       -1.61984
H         -0.89957        1.98056       -0.26188
H         -1.83538        0.75907       -1.18574
H         -1.30008       -1.72602       -0.94373
H          0.42791       -1.42693       -1.36695
H          0.00870       -2.26295        0.15961
H         -1.12407       -0.93945        1.93971
H         -1.46716        0.66987        1.77782
H          2.84505        0.59497        0.12956
