24
2-BIPHENYLAMINE.gamout	Energy:    -518.3126145
N          0.79681       -2.22527       -0.59247
C          0.69625       -0.13815        0.71289
C         -0.76833       -0.27085        0.96257
C          1.42341       -1.10105       -0.05497
C          1.39287        0.97869        1.22575
C         -1.33076       -1.45856        1.49275
C         -1.63689        0.81907        0.70887
C          2.81278       -0.90945       -0.25548
C          2.76775        1.16212        1.01950
C          3.47704        0.20308        0.27449
C         -2.70650       -1.54888        1.76054
C         -3.01155        0.72802        0.97720
C         -3.55478       -0.45818        1.50086
H          0.82981        1.71188        1.82300
H         -0.67344       -2.30955        1.72436
H         -1.22051        1.74618        0.28759
H          3.36989       -1.65246       -0.84758
H          3.27994        2.03686        1.44465
H          4.55657        0.32252        0.09907
H         -3.11688       -2.47741        2.18549
H         -3.66493        1.58820        0.76670
H         -4.63212       -0.53104        1.70982
H         -0.21693       -2.18074       -0.70179
H          1.27222       -2.67906       -1.37123
