15
2-CYCLOHEXENE-1-ONE.gamout	Energy:    -308.4571472
C         -2.74603        4.14360       -0.32310
C         -3.53073        2.95018        0.24681
C         -1.27836        4.12176        0.13779
H         -3.23008        5.09937       -0.03930
H         -2.77351        4.08976       -1.43216
C         -0.58749        2.79339       -0.17282
H         -1.22360        4.26224        1.24158
H         -0.67995        4.93489       -0.31515
C         -1.44403        1.58249       -0.12667
C         -2.78127        1.65284        0.09756
H         -4.52473        2.85989       -0.23924
H         -3.75222        3.10908        1.32892
H         -3.36218        0.71864        0.18223
H         -0.92992        0.61772       -0.25443
O          0.62060        2.72263       -0.40453
