18
2-ETHYL-1-BUTENE.gamout	Energy:    -235.6792638
C          1.20462        2.00039        1.60047
C          2.29583        1.35493        2.43713
C          3.71036        1.88365        2.27412
C          2.01830        0.34887        3.29374
C          0.94697        3.48284        1.93868
C          4.31202        1.64744        0.87402
H          1.46669        1.92024        0.52267
H          0.26595        1.42546        1.73319
H          3.72654        2.97436        2.49088
H          4.35947        1.40843        3.03701
H          0.99657       -0.04410        3.40906
H          2.80359       -0.11624        3.90910
H          0.67134        3.60243        3.00497
H          1.83909        4.11088        1.74700
H          0.11912        3.88576        1.32273
H          5.35362        2.02173        0.82796
H          4.32395        0.56783        0.62570
H          3.73749        2.16965        0.08366
