15
2-ETHYLTHIOPHENE.gamout	Energy:    -631.3987010
S         -0.74802        1.44292       -0.11749
C          1.82093        0.38909        0.47107
C          0.35396        0.12697        0.23213
C          2.74824       -0.30148       -0.54715
C         -0.33484       -1.07720        0.23853
C         -1.73280       -0.94090       -0.03761
C         -2.11077        0.37128       -0.25298
H          2.00356        1.48252        0.45366
H          2.08731        0.05695        1.49787
H          2.62432       -1.40158       -0.51955
H          3.81025       -0.07273       -0.32889
H          2.52363        0.03664       -1.57746
H          0.15384       -2.04084        0.43903
H         -2.43619       -1.78398       -0.07350
H         -3.10447        0.77196       -0.48120
