27
2-ETHYL-6-METHYLNAPHTHALENE.gamout	Energy:    -503.4896064
C          1.33169        1.24918        0.05954
C          2.50399        0.54743        0.32982
C          2.41287       -0.86022        0.56834
C          1.19430       -1.52157        0.53074
C         -0.01670       -0.81779        0.25153
C         -1.28996       -1.46275        0.20609
C         -2.46101       -0.76040       -0.06531
C         -2.36931        0.64839       -0.30160
C         -1.15143        1.30904       -0.26454
C          0.05990        0.60377        0.01086
C         -3.80880       -1.44281       -0.11571
C          3.85466        1.23668        0.34656
C          4.68251        0.98887       -0.93086
H          1.37543        2.33500       -0.12148
H          3.33159       -1.42449        0.79124
H          1.14688       -2.60435        0.72251
H         -1.33403       -2.54753        0.39213
H         -3.28958        1.21342       -0.51633
H         -1.10451        2.39310       -0.44887
H         -4.28140       -1.31888       -1.11211
H         -4.50711       -1.00688        0.62863
H         -3.72632       -2.52630        0.08952
H          4.43313        0.88730        1.22840
H          3.70595        2.32721        0.48150
H          4.87049       -0.09237       -1.08315
H          5.66318        1.50135       -0.87034
H          4.14953        1.36492       -1.82624
