21
2-ETHYL-1-PENTENE.gamout	Energy:    -274.9606558
C          0.70520        0.73629        0.92529
C          1.38757        2.09933        0.74773
C          2.06703        2.65670        2.02818
C          2.96804        3.81573        1.67428
C          1.02278        3.06771        3.09823
C          4.30118        3.86242        1.85312
C          1.62682        3.48161        4.44529
H          1.43698       -0.03598        1.23800
H          0.24768        0.39713       -0.02483
H         -0.10084        0.76345        1.68457
H          0.65231        2.84863        0.38031
H          2.15822        2.01656       -0.04581
H          2.70097        1.84724        2.45726
H          2.46113        4.68698        1.21736
H          0.32233        2.22239        3.25506
H          0.40890        3.89888        2.68631
H          4.89154        4.74097        1.55435
H          4.84953        3.01973        2.30371
H          0.83625        3.75743        5.16964
H          2.30802        4.34780        4.33544
H          2.21542        2.65218        4.88763
