16
2-ETHOXYETHANOL.gamout	Energy:    -308.6653055
O         -1.15579        0.24918       -0.03848
O          2.44219       -0.07918       -0.16214
C          0.08958       -0.42726       -0.08037
C         -2.27036       -0.63479        0.01221
C          1.19717        0.62138       -0.12319
C         -3.55293        0.18166        0.05504
H          0.22261       -1.07612        0.81848
H          0.15908       -1.08445       -0.97995
H         -2.25997       -1.30719       -0.88018
H         -2.19053       -1.29102        0.91324
H          1.11845        1.26995        0.77813
H          1.05890        1.26364       -1.02209
H         -4.43118       -0.49111        0.09725
H         -3.57051        0.83530        0.94820
H         -3.64331        0.81781       -0.84626
H          3.16763        0.56602       -0.18921
