11
2-FLUOROPROPANE.gamout	Energy:    -218.2270532
C         34.01553        0.96660       -0.03618
C         32.70392        1.73873       -0.09741
C         32.84141        3.23494        0.14864
F         32.13664        1.54994       -1.38767
H         34.45162        1.04003        0.98000
H         33.84984       -0.10217       -0.26906
H         34.74398        1.37956       -0.76158
H         31.97037        1.30028        0.61380
H         31.86312        3.74124        0.04556
H         33.22160        3.41709        1.17364
H         33.55160        3.68455       -0.57310
