19
2-HEPTYNE.gamout	Energy:    -273.7198475
C          5.48028        1.71328        1.85419
C          4.31092        1.04417        1.09176
C          2.99109        1.60060        1.40894
C          5.66981        3.19900        1.51800
C          1.89408        2.07108        1.68894
C          6.82626        3.85047        2.28700
C          0.58022        2.62427        2.01374
H          6.41153        1.15597        1.61611
H          5.31251        1.59741        2.94590
H          4.49183        1.13154       -0.00290
H          4.30693       -0.04492        1.31244
H          4.72433        3.73970        1.73247
H          5.84347        3.30215        0.42463
H          6.66120        3.79347        3.38222
H          7.79050        3.34749        2.06860
H          6.93790        4.91951        2.02019
H          0.61536        3.73004        2.09757
H         -0.16679        2.37223        1.23305
H          0.20205        2.22722        2.97825
