16
2-HEXYNE.gamout	Energy:    -234.4344895
C          3.52378        1.57684        1.26145
C          4.59427        2.15505        1.10989
C          5.87738        2.83227        0.92998
C          2.23256        0.90127        1.43064
C          1.00846        1.77617        1.06226
C          0.84889        3.01841        1.94641
H          5.78169        3.70384        0.24989
H          6.63582        2.15047        0.49324
H          6.27812        3.20483        1.89524
H          2.13401        0.56148        2.48588
H          2.22000       -0.02121        0.81100
H          0.10104        1.14124        1.13606
H          1.09672        2.08091       -0.00090
H         -0.03061        3.61604        1.63727
H          1.74520        3.66608        1.88179
H          0.71120        2.73781        3.01060
