19
2-HEXANONE.gamout	Energy:    -310.8801344
O          1.71068       -1.31846        0.01811
C         -0.91986       -0.22927        0.00800
C         -2.22943        0.57387        0.00049
C          0.32685        0.65801        0.00227
C         -3.48385       -0.30933        0.00603
C          1.65531       -0.09459        0.00894
C          2.91615        0.75734        0.00335
H         -0.88475       -0.90771       -0.86962
H         -0.88679       -0.89416        0.89601
H         -2.25014        1.25139        0.88219
H         -2.24824        1.23785       -0.89147
H          0.32985        1.33547       -0.88235
H          0.32845        1.34915        0.87626
H         -3.51265       -0.95763        0.90516
H         -4.40875        0.29977        0.00019
H         -3.51073       -0.97162       -0.88295
H          2.93553        1.41457       -0.89054
H          2.93411        1.42852        0.88688
H          3.81066        0.11117        0.00917
