25
2-ISOPROPYL-4-METHYLPHENOL.gamout	Energy:    -464.4127942
O          1.02201       -2.36868       -0.02347
C          2.02350        0.30374        0.01351
C          0.53212       -0.02247       -0.00147
C          2.43291        1.04762        1.30168
C          2.45194        1.07831       -1.25028
C         -0.44284        0.99319        0.00226
C          0.07744       -1.36369       -0.01974
C         -1.83037        0.73487       -0.01111
C         -1.29946       -1.65150       -0.03298
C         -2.24197       -0.61156       -0.02861
C         -2.82915        1.87133       -0.00669
H          2.56058       -0.66436        0.00548
H          1.94285        2.03999        1.37231
H          3.52867        1.21378        1.32479
H          2.15431        0.46918        2.20346
H          2.18632        0.52221       -2.16982
H          3.54796        1.24439       -1.25332
H          1.96336        2.07252       -1.30402
H         -0.10256        2.04070        0.01649
H         -1.63781       -2.70026       -0.04708
H         -3.31512       -0.85480       -0.03907
H         -2.69884        2.53011       -0.89016
H         -3.86965        1.49579       -0.01841
H         -2.71233        2.51164        0.89213
H          0.57036       -3.23052       -0.03613
