24
2-ISOPROPYL-1-PENTENE.gamout	Energy:    -314.2486035
C          0.13095       19.11726        0.78465
C          1.36670       20.00158        0.57690
C          1.10275       21.19758       -0.36538
C          2.32185       22.08270       -0.58821
C          2.43151       23.38534        0.20047
C          3.28049       21.72635       -1.46975
C          1.38219       24.41582       -0.27200
C          2.34752       23.17313        1.72581
H          0.35353       18.26661        1.45756
H         -0.70522       19.69097        1.23429
H         -0.23149       18.70117       -0.17760
H          2.19849       19.39897        0.15654
H          1.72901       20.37619        1.55599
H          0.26034       21.79533        0.04270
H          0.75266       20.80547       -1.34347
H          3.43402       23.80867       -0.02357
H          4.17952       22.34237       -1.62275
H          3.19872       20.80781       -2.07107
H          1.51106       25.37684        0.26520
H          1.47312       24.61151       -1.35758
H          0.34959       24.06318       -0.07475
H          2.48886       24.13369        2.25933
H          3.12553       22.46952        2.07956
H          1.35818       22.77397        2.02934
