21
2-METHYL-1-PENTANOL.gamout	Energy:    -312.0771482
C          3.12617        2.08040        2.85614
C          1.95240        1.80512        1.88940
C          1.37610        3.11273        1.33090
C          0.85637        0.95871        2.55494
C          4.42899        2.55604        2.19111
O          0.45564        2.80084        0.27702
C          5.57883        2.75409        3.18666
H          2.80687        2.82256        3.62300
H          3.33784        1.14648        3.41982
H          2.34786        1.23944        1.01583
H          0.86216        3.66635        2.15315
H          2.19530        3.76115        0.94709
H          1.25081       -0.02896        2.86528
H          0.46487        1.46469        3.46257
H          0.00809        0.79082        1.86585
H          4.72808        1.81572        1.41782
H          4.25251        3.50684        1.64554
H          0.04326        3.62238       -0.03870
H          5.32280        3.51547        3.95173
H          5.81179        1.81160        3.72307
H          6.50400        3.08872        2.67839
