32
2-METHYL-4-ETHYLHEPTANE.gamout	Energy:    -394.0473286
C         -0.75491        0.36394        0.15886
C          0.71753        0.77811        0.26566
C          0.95720        2.25958       -0.05781
C          2.43228        2.71407        0.01097
C          3.21639        2.22184       -1.22500
C          2.53790        4.24903        0.14459
C          4.75364        2.22652       -1.11169
C          5.26574        1.16250       -0.13005
C          5.39229        2.02713       -2.49378
C          2.13936        4.79973        1.51701
H         -0.89604       -0.70356        0.41695
H         -1.38412        0.96366        0.84761
H         -1.14987        0.51418       -0.86692
H          1.33141        0.13898       -0.40301
H          1.07914        0.57211        1.29704
H          0.34349        2.86967        0.63839
H          0.57149        2.48831       -1.07713
H          2.87955        2.25820        0.92297
H          2.89577        1.19243       -1.49365
H          2.91844        2.85962       -2.08593
H          3.57548        4.56492       -0.08676
H          1.90210        4.70784       -0.64472
H          5.07312        3.22448       -0.73758
H          6.37145        1.18444       -0.05700
H          4.86239        1.30129        0.89093
H          4.97396        0.14768       -0.47218
H          6.49833        2.03821       -2.43598
H          5.08434        2.81778       -3.20609
H          5.08793        1.05060       -2.92416
H          2.22332        5.90336        1.54959
H          1.09303        4.54208        1.76996
H          2.78746        4.39063        2.31856
