15
2-METHYL-1-PROPANOL.gamout	Energy:    -233.5083236
O          1.06546        1.30925        0.85912
C         -1.27376        0.82598        0.50241
C          0.13709        0.24178        0.63625
C         -1.38752        1.76001       -0.71247
C         -2.31544       -0.30431        0.45796
H         -1.44859        1.42993        1.42055
H          0.16358       -0.48200        1.48383
H          0.39547       -0.32059       -0.29389
H         -2.39239        2.22400       -0.76091
H         -1.23038        1.19654       -1.65646
H         -0.63462        2.56888       -0.66790
H         -3.34254        0.10723        0.41353
H         -2.24976       -0.95497        1.35288
H         -2.17451       -0.94506       -0.43763
H          1.96009        0.94037        0.94718
