20
2-METHYLPIPERIDINE.gamout	Energy:    -291.0230983
C         -1.29600       -0.07174        2.43608
C         -2.19235        0.20870        1.22910
C         -3.32634       -0.82008        1.08930
N         -1.38768        0.19867        0.00127
C         -4.17171       -0.56128       -0.16846
C         -2.15196        0.54858       -1.19619
C         -3.27607       -0.47035       -1.41337
H         -0.49749        0.69228        2.52464
H         -1.88241       -0.05665        3.37495
H         -0.81322       -1.06394        2.33572
H         -2.67361        1.21462        1.37668
H         -2.87239       -1.83281        1.03453
H         -3.96001       -0.79240        1.99883
H         -0.57202        0.80997        0.10484
H         -4.93225       -1.35748       -0.29406
H         -4.72951        0.39328       -0.04618
H         -1.46572        0.55864       -2.06544
H         -2.60697        1.57261       -1.12428
H         -2.82343       -1.46254       -1.62133
H         -3.86988       -0.18536       -2.30415
