24
2-METHYL-3-ETHYL-2-PENTENE.gamout	Energy:    -314.2532846
C          3.75184        0.73935        1.95872
C          3.67824        1.86039        0.90272
C          3.21472        3.19348        1.46626
C          4.32408        4.02375        2.09366
C          1.91861        3.60958        1.41814
C          5.02933        4.96768        1.09863
C          1.45049        4.95233        1.93542
C          0.78990        2.79102        0.83226
H          2.74683        0.51896        2.36861
H          4.15918       -0.19340        1.52168
H          4.40139        1.02661        2.80895
H          3.02659        1.53881        0.06882
H          4.68674        2.00008        0.45718
H          5.07702        3.33098        2.52428
H          3.93847        4.61197        2.94835
H          5.87044        5.50139        1.58328
H          5.43717        4.40984        0.23216
H          4.32208        5.72267        0.70352
H          2.25686        5.58090        2.34890
H          0.96502        5.52999        1.11976
H          0.67844        4.82530        2.72478
H          1.08930        1.78626        0.48991
H         -0.01518        2.65804        1.58612
H          0.32289        3.31864       -0.02775
