21
2-METHYL-TRANS-3-HEXENE.gamout	Energy:    -274.9670611
C          1.61487        1.84385        0.63574
C          2.01188        2.11614        2.10057
C          3.24802        1.33656        2.47499
C          0.84902        1.78683        3.05771
C          4.42730        1.86285        2.85904
C          5.65126        1.07329        3.23745
C          6.12125        1.33255        4.68144
H          1.38673        0.76863        0.48263
H          0.71256        2.42296        0.35573
H          2.43293        2.11806       -0.05714
H          2.24887        3.19826        2.19957
H          3.15488        0.23428        2.41886
H          0.59373        0.70829        3.00428
H         -0.05998        2.36321        2.79379
H          1.11603        2.01958        4.10606
H          4.51802        2.96438        2.91584
H          5.44845       -0.00829        3.09358
H          6.48004        1.33203        2.54068
H          6.34359        2.40679        4.84381
H          7.04131        0.75915        4.90738
H          5.34122        1.03767        5.41067
