15
2-METHYL-2-BUTENE.gamout	Energy:    -196.3998046
C          4.34316        0.92844        1.18165
C          2.85722        0.98572        0.96241
C          2.03020        2.05276        1.08001
C          0.54862        1.91951        0.81851
C          2.47898        3.44038        1.46720
H          4.86796        0.58997        0.26245
H          4.77704        1.90180        1.47567
H          4.60042        0.19297        1.97403
H          2.38989        0.02895        0.66856
H         -0.04182        2.22204        1.71038
H          0.22762        2.58810       -0.00953
H          0.26841        0.88273        0.55486
H          1.95281        3.78541        2.38362
H          3.56468        3.50948        1.65451
H          2.22326        4.17237        0.67070
