21
2-METHYL-CIS-3-HEXENE.gamout	Energy:    -274.9599975
C          4.52506        3.31450        2.31855
C          3.23815        3.54065        1.96732
C          5.31759        2.07284        2.66400
C          2.06451        2.60724        1.77490
C          1.54940        2.68675        0.32222
C          0.93328        2.95536        2.76523
C          4.65351        0.69117        2.64957
H          5.15203        4.22260        2.37148
H          2.97895        4.60121        1.78143
H          5.76353        2.24462        3.67083
H          6.20004        2.05526        1.98392
H          2.38385        1.56735        1.96917
H          0.67954        2.01596        0.17727
H          1.22426        3.71849        0.07335
H          2.33469        2.39868       -0.40196
H          0.58311        3.99800        2.61586
H          0.06390        2.28431        2.61861
H          1.27102        2.86085        3.81470
H          5.39439       -0.08798        2.92401
H          3.82074        0.62797        3.37673
H          4.25643        0.43363        1.64849
