16
2-METHYL-CIS-1,3-PENTADIENE.gamout	Energy:    -234.4582228
C          1.13037        3.72263        0.72554
C          2.12864        2.83165        0.93982
C          2.10577        1.72712        1.90211
C          3.16394        0.87884        2.06095
C          0.85850        1.54146        2.73549
C          4.48218        0.88107        1.34447
H          0.18066        3.68934        1.27857
H          1.24061        4.52051       -0.02171
H          3.04493        2.94146        0.33953
H          3.04603        0.08078        2.81458
H          0.96254        0.67855        3.41810
H          0.64626        2.44219        3.34910
H         -0.03244        1.36915        2.09579
H          4.57527        1.68303        0.59040
H          5.31998        0.99674        2.06459
H          4.64589       -0.08808        0.82658
