26
2-METHYLHEPTANE.gamout	Energy:    -315.4795876
C          5.21723        2.36087        1.97647
C          4.11890        1.33167        2.28831
C          6.39788        1.82106        1.14109
C          2.90916        1.91781        3.03350
C          7.26701        2.97535        0.62136
C          7.24960        0.80800        1.92194
C          1.79855        0.89269        3.30553
C          0.58158        1.48277        4.02721
H          5.61141        2.78375        2.92827
H          4.75880        3.21494        1.43348
H          4.54542        0.49624        2.88464
H          3.77602        0.87696        1.33246
H          5.96358        1.29930        0.25760
H          2.48917        2.76513        2.44672
H          3.24550        2.35765        3.99898
H          6.67551        3.67398       -0.00206
H          7.69486        3.55782        1.46425
H          8.11323        2.60511        0.00912
H          8.07778        0.41690        1.29809
H          6.65739       -0.06058        2.26762
H          7.70119        1.28758        2.81543
H          2.21505        0.05308        3.90393
H          1.47908        0.44393        2.33998
H          0.86212        1.89004        5.02022
H          0.12962        2.31328        3.44625
H         -0.20551        0.72039        4.18868
