20
2-METHYLINDENE.gamout	Energy:    -386.8152555
C          2.96530        2.59889        1.81714
C          2.97318        2.66409        3.23604
C          1.90963        3.24846        3.92665
C          4.25029        2.02577        3.73425
C          1.88492        3.12351        1.08932
C          4.19631        1.93875        1.38179
C          0.81606        3.71083        1.78847
C          0.82636        3.77355        3.19331
C          4.95873        1.59614        2.46113
C          6.28759        0.90703        2.45068
H          1.91578        3.29836        5.02456
H          4.05071        1.15998        4.40414
H          4.86928        2.73551        4.32716
H          1.87963        3.07286       -0.00748
H          4.46221        1.74954        0.33349
H         -0.03820        4.12619        1.23503
H         -0.01684        4.23565        3.72332
H          7.07424        1.52677        2.93265
H          6.60659        0.68907        1.41537
H          6.25727       -0.05080        3.01355
