13
2-METHOXYETHANOL.gamout	Energy:    -269.3749191
O         -1.73755       -2.15481        0.83898
O          1.14447       -0.16643       -0.05936
C         -1.03005       -1.07811        0.24616
C          0.45419       -1.26123        0.54669
C         -3.13464       -2.08134        0.62315
H         -1.19006       -1.05620       -0.85873
H         -1.37723       -0.09867        0.65465
H          0.79241       -2.23897        0.13524
H          0.60451       -1.28039        1.64983
H         -3.59357       -2.95634        1.11881
H         -3.38264       -2.10660       -0.46432
H         -3.56600       -1.14857        1.05706
H          2.09555       -0.25613        0.11538
