30
2-NONANOL.gamout	Energy:    -429.9375236
C         69.00643       30.02625       -0.11136
C         67.68611       29.23638       -0.14630
C         67.87993       27.71299       -0.14293
C         68.79475       31.54755       -0.10139
C         66.58543       26.90361        0.00425
C         70.08897       32.36788        0.01401
C         65.64252       27.03403       -1.19430
O         66.99513       25.53727        0.20068
C         69.85037       33.88573        0.04262
C         71.13444       34.70997        0.19711
H         69.58563       29.73135        0.79083
H         69.63411       29.73744       -0.98291
H         67.10903       29.54885       -1.04271
H         67.07106       29.53361        0.73181
H         68.54245       27.42208        0.69777
H         68.39404       27.38774       -1.07295
H         68.24729       31.85188       -1.02050
H         68.12586       31.80757        0.74914
H         66.05573       27.26297        0.92033
H         70.63240       32.06620        0.93654
H         70.76633       32.11628       -0.83223
H         64.73471       26.41228       -1.05616
H         65.30421       28.08103       -1.32491
H         66.14993       26.70719       -2.12353
H         66.20199       24.97650        0.26527
H         69.32178       34.18820       -0.88702
H         69.15593       34.12386        0.87777
H         70.92013       35.79662        0.22425
H         71.66672       34.45055        1.13494
H         71.83638       34.53014       -0.64290
