17
2-NORBORNENE.gamout	Energy:    -272.5390715
C          0.03736       -1.13121       -0.32050
C          0.03703        1.13133       -0.32061
C          0.02101        0.00010       -1.37624
C         -1.26497       -0.78106        0.48793
C         -1.26515        0.78070        0.48779
C          1.20042       -0.67693        0.55068
C          1.20010        0.67706        0.55057
H          0.07745       -2.17071       -0.69260
H          0.07686        2.17087       -0.69255
H          0.92321        0.00014       -2.01446
H         -0.88993       -0.00007       -2.00676
H         -1.24183       -1.21160        1.50588
H         -2.15736       -1.18726       -0.02715
H         -2.15772        1.18671       -0.02718
H         -1.24198        1.21134        1.50564
H          1.82663       -1.34073        1.16018
H          1.82606        1.34103        1.15999
