18
2-PENTANOL.gamout	Energy:    -272.7951805
C          2.22988        1.77205        3.05030
C          1.62271        2.59286        1.89930
C          1.05017        1.74362        0.75649
C          3.40845        0.85392        2.68332
C          4.61426        1.61283        2.12206
O          3.78104        0.05120        3.81799
H          1.44372        1.13641        3.50782
H          2.57685        2.46729        3.84730
H          2.37798        3.30190        1.49963
H          0.81511        3.22662        2.32010
H          0.32262        1.00100        1.14105
H          1.83990        1.18742        0.21351
H          0.52620        2.37694        0.01513
H          3.07528        0.10272        1.93789
H          4.94445        2.39924        2.83278
H          4.36842        2.11237        1.16414
H          5.45579        0.91787        1.94647
H          4.06837        0.64965        4.53198
