25
2-PHENYLBUTAN-1-OL.gamout	Energy:    -464.3971922
O         -1.13295       -3.11554        0.34617
C         -1.32479       -0.71006        0.49591
C         -2.10264        0.42813        1.20355
C          0.16898       -0.42904        0.37449
C         -1.63042       -2.05932        1.17182
C         -2.02613        1.77714        0.47901
C          0.78106       -0.37173       -0.89271
C          0.97652       -0.20260        1.50920
C          2.14653       -0.07653       -1.02873
C          2.34455        0.08873        1.38179
C          2.93288        0.16074        0.10860
H         -1.72607       -0.79198       -0.53714
H         -1.73490        0.54136        2.24544
H         -3.16402        0.11261        1.28722
H         -2.73409       -2.14986        1.30115
H         -1.16620       -2.09650        2.18557
H         -0.98886        2.16529        0.45363
H         -2.65996        2.53350        0.98079
H         -2.37313        1.68664       -0.56998
H          0.17267       -0.56767       -1.78687
H          0.53147       -0.25348        2.51334
H          2.59855       -0.03281       -2.03025
H          2.95702        0.25387        2.28118
H          4.00025        0.39604        0.00519
H         -1.37095       -3.96991        0.74485
