12
2-PROPANOL.gamout	Energy:    -194.2269696
C          0.61207        1.19847        1.99958
C          2.07197        1.65103        2.10605
C          2.94567        1.09546        0.98488
O          2.18397        3.08435        2.03357
H          0.17080        1.55196        1.04652
H          0.53925        0.09292        2.03290
H          0.00609        1.59864        2.83758
H          2.48583        1.30304        3.08328
H          2.95119       -0.01131        1.00675
H          2.56272        1.42702       -0.00063
H          3.98573        1.45486        1.09545
H          1.59251        3.47863        2.69829
