18
2-PROPYLTHIOPHENE.gamout	Energy:    -670.6843119
S          2.74782       -1.53598       -0.74210
C          1.81973       -1.38349        1.92885
C          2.63979       -0.88953        3.14084
C          2.11738       -0.66478        0.63806
C          2.30978       -1.65717        4.42611
C          1.96112        0.67556        0.31880
C          2.34785        0.99520       -1.02069
C          2.79754       -0.10499       -1.72475
H          0.73632       -1.28502        2.16192
H          1.99752       -2.47128        1.79624
H          3.72028       -0.98549        2.90609
H          2.45370        0.19418        3.29077
H          2.52020       -2.73993        4.30999
H          2.90962       -1.28815        5.28018
H          1.23894       -1.55182        4.69536
H          1.57193        1.41726        1.02881
H          2.29259        2.00325       -1.45407
H          3.15283       -0.15965       -2.75859
