15
2-THIAPENTANE.gamout	Energy:    -556.4474613
S          1.38188       -0.76464        0.01373
C         -1.37913       -0.49720        0.00884
C         -0.09278        0.33650        0.00061
C         -2.64424        0.37246       -0.00123
C          2.72090        0.47881        0.00129
H         -1.38166       -1.17241       -0.87240
H         -1.38259       -1.15358        0.90416
H         -0.05152        0.97905       -0.90429
H         -0.05247        0.99839        0.89154
H         -2.68375        1.01594       -0.90346
H         -3.55830       -0.25324        0.00512
H         -2.68480        1.03528        0.88688
H          2.68580        1.12577        0.90061
H          2.68810        1.10473       -0.91285
H          3.67408       -0.08250        0.00901
