26
3,3-DIMETHYLHEXANE.gamout	Energy:    -315.4772587
C          3.81780        2.80751        2.73867
C          2.78372        2.00185        1.90751
C          1.57978        1.61722        2.81238
C          2.29461        2.81798        0.69424
C          3.41561        0.68814        1.40571
C          5.12368        3.20828        2.03292
C          0.75613        2.76089        3.42083
C          6.06547        4.01433        2.93651
H          3.33142        3.73221        3.11485
H          4.06901        2.20778        3.64118
H          1.96342        0.97271        3.63320
H          0.90088        0.97233        2.21353
H          1.48349        2.28007        0.16443
H          1.90614        3.80971        0.99542
H          3.11139        2.98542       -0.03304
H          3.80641        0.08704        2.25139
H          2.66498        0.07205        0.87207
H          4.24963        0.87328        0.70356
H          4.89153        3.80436        1.12600
H          5.65653        2.30151        1.67935
H          1.35326        3.39270        4.10715
H          0.32389        3.42175        2.64394
H         -0.08908        2.35221        4.00875
H          5.59374        4.95528        3.28782
H          6.35379        3.43218        3.83574
H          6.99207        4.28420        2.39672
