29
3,3-DIETHYLPENTANE.gamout	Energy:    -354.7531281
C          3.18428        3.78709        2.59283
C          2.25421        2.56819        2.85378
C          1.79776        2.62295        4.34493
C          3.00278        1.22754        2.61878
C          0.96855        2.60964        1.96668
C          3.88054        3.89765        1.22739
C          0.90562        3.80140        4.76930
C          4.26305        0.97037        3.45997
C          1.02128        2.06375        0.52889
H          2.59181        4.70978        2.75844
H          3.96567        3.79542        3.38198
H          1.26054        1.67545        4.56670
H          2.69932        2.62244        4.99047
H          2.28093        0.40006        2.79176
H          3.28124        1.15813        1.54896
H          0.17794        2.04090        2.50258
H          0.60811        3.65861        1.93301
H          4.48021        2.99821        0.98573
H          3.16555        4.05558        0.39894
H          4.57287        4.76190        1.22492
H         -0.05059        3.83211        4.21117
H          0.65265        3.71564        5.84368
H          1.40543        4.78025        4.63121
H          4.71998        0.00017        3.18287
H          5.03337        1.75005        3.29989
H          4.05414        0.92851        4.54658
H          0.03685        2.21195        0.04420
H          1.77620        2.56565       -0.10496
H          1.23616        0.97854        0.50457
