29
3,3-DIMETHYLHEPTANE.gamout	Energy:    -354.7626210
C          3.27540        1.80434        3.79499
C          4.77512        1.97563        4.17563
C          5.64432        1.13756        3.19995
C          4.94080        1.45917        5.62023
C          5.17781        3.46260        4.12817
C          2.82685        2.26014        2.39693
C          7.15283        1.09080        3.48189
C          1.32233        2.04956        2.15518
C          0.86149        2.48739        0.76076
H          3.01834        0.72843        3.91288
H          2.66605        2.34419        4.55286
H          5.24873        0.09876        3.19604
H          5.48880        1.52625        2.17276
H          4.26943        2.00731        6.31109
H          5.97442        1.59038        5.99465
H          4.68928        0.38164        5.68778
H          4.49425        4.07560        4.74877
H          5.15520        3.86686        3.09797
H          6.20162        3.61225        4.52169
H          3.38916        1.70835        1.61403
H          3.06527        3.33502        2.24800
H          7.66802        0.48394        2.71237
H          7.37634        0.63268        4.46460
H          7.61475        2.09785        3.46558
H          1.07675        0.97553        2.30625
H          0.74684        2.60374        2.92821
H          1.05728        3.56551        0.58742
H         -0.22396        2.31989        0.62490
H          1.38929        1.92217       -0.03479
