24
3,4-DIMETHYL-CIS-3-HEXENE.gamout	Energy:    -314.2527486
C          4.42214        3.23878        1.13089
C          5.45602        3.38440        2.26778
C          3.11901        3.99047        1.36559
C          1.99274        3.38273        1.83501
C          3.20815        5.45891        1.01152
C          1.95425        1.91225        2.22751
C          0.66840        4.08380        2.03950
C          1.32397        0.98650        1.16577
H          4.87565        3.62051        0.19007
H          4.22917        2.16428        0.95231
H          5.07465        2.94324        3.20957
H          6.40313        2.87165        2.00618
H          5.69741        4.44666        2.47007
H          3.31997        5.59561       -0.08669
H          2.33928        6.05582        1.33814
H          4.10947        5.91627        1.47184
H          1.37124        1.82070        3.17033
H          2.96837        1.54463        2.47043
H          0.43000        4.17185        3.12246
H          0.61529        5.09556        1.60134
H         -0.15769        3.49279        1.59054
H          1.28618       -0.06010        1.52774
H          0.28796        1.28951        0.91562
H          1.91240        1.00532        0.22749
