24
3,4-DIMETHYL-TRANS-3-HEXENE.gamout	Energy:    -314.2526656
C          5.63125        2.03961        1.98880
C          6.53582        1.81516        0.75894
C          4.27384        2.64462        1.65575
C          3.16563        1.89869        1.38698
C          4.28117        4.15687        1.64278
C          1.80969        2.50483        1.05250
C          3.15686        0.38666        1.40003
C          0.90552        2.73464        2.28133
H          5.51491        1.07972        2.52912
H          6.15478        2.71516        2.69880
H          7.53129        1.43476        1.06325
H          6.08368        1.07992        0.06483
H          6.69237        2.75509        0.19317
H          5.10976        4.53932        1.01044
H          4.46336        4.55537        2.66485
H          3.34390        4.60767        1.27491
H          1.28501        1.82884        0.34390
H          1.92745        3.46322        0.51005
H          4.09265       -0.06523        1.77050
H          2.97742       -0.01173        0.37741
H          2.32592        0.00492        2.02983
H          1.35885        3.47089        2.97358
H         -0.08868        3.11684        1.97518
H          0.74538        1.79694        2.84975
