21
3,4-DIMETHYL-TRANS-2-PENTENE.gamout	Energy:    -274.9675029
C          4.50276        2.53782        1.99891
C          3.16131        1.86916        1.68929
C          2.07919        2.57986        1.28802
C          3.15713        0.36874        1.86828
C          4.41126        4.02492        2.37019
C          5.50741        2.34176        0.84043
C          0.70786        2.07331        0.93034
H          4.91913        2.00249        2.88318
H          2.19482        3.67277        1.20880
H          3.33468        0.10497        2.93352
H          2.20883       -0.10319        1.55689
H          3.97534       -0.11164        1.29093
H          5.39797        4.40038        2.70336
H          3.68466        4.19697        3.18704
H          4.10384        4.64384        1.50316
H          5.15749        2.87382       -0.06703
H          6.50252        2.74621        1.11402
H          5.64182        1.27529        0.57742
H          0.43757        2.36233       -0.10817
H          0.61011        0.97506        1.00779
H         -0.06715        2.52555        1.58651
