27
3,5-DIETHYLTOLUENE.gamout	Energy:    -428.5227958
C          7.53122        5.64797        1.94390
C          6.65483        5.12309        0.78996
C          5.51704        4.22387        1.24591
C          4.24512        4.75312        1.54417
C          5.71620        2.83804        1.40629
C          3.19042        3.93469        1.99905
C          4.68872        1.98847        1.86135
C          1.81290        4.51427        2.27118
C          3.43346        2.55641        2.15798
C          4.91624        0.49819        1.99683
C          0.89003        4.48611        1.03772
H          6.93267        6.24192        2.66229
H          8.34052        6.29545        1.55376
H          8.00026        4.81453        2.50292
H          7.29290        4.56417        0.07386
H          6.23537        5.98366        0.22903
H          4.06977        5.83335        1.41957
H          6.70187        2.40748        1.17139
H          1.91613        5.55865        2.63149
H          1.33407        3.94703        3.09631
H          2.62144        1.90636        2.52078
H          5.98475        0.26296        2.16185
H          4.60145       -0.03517        1.07510
H          4.33158        0.07330        2.83539
H         -0.10215        4.91234        1.28085
H          1.32105        5.07169        0.20211
H          0.73813        3.44900        0.67863
