24
3,5-DIMETHYL-CIS-2-HEXENE.gamout	Energy:    -314.2539080
C          1.49090        0.73341        1.40417
C          2.69013        0.29554        0.60898
C          3.00957       -0.96921        0.24308
C          2.14865       -2.17126        0.59432
C          0.89281       -2.38141       -0.29196
C          1.23489       -2.53481       -1.78034
C          0.08411       -3.58592        0.21006
C          4.27412       -1.26350       -0.52583
H          0.80755        1.36456        0.79530
H          1.79525        1.35731        2.27148
H          0.90063       -0.11812        1.79040
H          3.37867        1.10252        0.30314
H          1.81120       -2.09535        1.64863
H          2.77055       -3.09089        0.53942
H          0.25942       -1.47345       -0.18544
H          1.88933       -3.41568       -1.95043
H          1.75283       -1.63988       -2.17420
H          0.31632       -2.68057       -2.38010
H          0.67081       -4.52453        0.12162
H         -0.84425       -3.71487       -0.37910
H         -0.20211       -3.46869        1.27378
H          4.83324       -0.34182       -0.77535
H          4.05596       -1.80348       -1.47093
H          4.94425       -1.92625        0.06336
