26
3-(MMIM)PHO.gamout	Energy:    -610.6754175
H         -1.44025       -5.34352       -1.84651
C         -0.72304       -4.79503       -1.21426
H         -1.59869       -2.83948       -1.67816
H          2.44506       -1.73590       -1.14893
C         -0.84356       -3.39233       -1.10360
C          0.28342       -5.50071       -0.55707
H          2.80743        0.01815       -1.41849
C          2.45350       -0.73345       -0.69067
C          0.10945       -2.71377       -0.29367
C          1.30370       -4.85677        0.26650
N          1.09237       -0.39153       -0.28320
C          0.04881       -1.26785       -0.15041
H         -3.08616       -0.78342       -0.32038
C          1.13382       -3.41315        0.37915
C          0.65571        0.89926       -0.03463
N         -1.04368       -0.50979        0.17745
H          3.13272       -0.74948        0.18240
C         -0.68321        0.82625        0.24613
H          1.32889        1.75686       -0.08872
C         -2.37418       -1.01926        0.49337
H          1.83406       -2.88214        1.04018
H         -1.40352        1.60699        0.49663
H         -2.30759       -2.11458        0.60796
H         -2.72974       -0.55851        1.43309
O          2.25106       -5.47482        0.82579
H          0.35173       -6.59510       -0.66126
