13
3-CHLOROPHENOL.gamout	Energy:    -766.7749444
Cl         2.60512       -0.39146       -0.18756
O         -2.44553       -1.43700       -0.18105
C         -1.43071       -0.51787       -0.13793
C         -0.07476       -0.89618       -0.17896
C         -1.78516        0.84184       -0.05044
C          0.91293        0.09788       -0.13170
C         -0.77667        1.81280       -0.00423
C          0.58363        1.45757       -0.04387
H          0.21172       -1.95501       -0.24807
H         -2.84794        1.11596       -0.01996
H         -1.05311        2.87500        0.06421
H          1.37155        2.21903       -0.00827
H         -2.07880       -2.33736       -0.24077
