12
3-CHLORO-1-BUTENE.gamout	Energy:    -616.6154829
C          1.86569        1.93012        2.47028
C          2.68976        2.07078        1.22763
C          3.48507        0.81962        0.86986
Cl         3.88093        3.48184        1.45850
C          0.54036        2.15539        2.52068
H          2.40963        1.60408        3.37358
H          2.05815        2.39821        0.38038
H          4.10602        0.98896       -0.02903
H          2.78176       -0.01356        0.66609
H          4.14719        0.52077        1.70527
H         -0.02095        2.48901        1.63361
H         -0.03304        2.00898        3.44770
