21
3-ETHYL-1-PENTENE.gamout	Energy:    -274.9570278
C          1.20791        0.95005        2.07724
C          2.05285        2.16437        2.56561
C          3.54335        2.08371        2.14696
C          1.96368        2.29215        4.06702
C          0.47177        1.17514        0.74868
C          3.81320        2.03001        0.63708
C          1.49566        3.36162        4.73397
H          0.45146        0.70829        2.85165
H          1.86267        0.05464        2.00439
H          1.62130        3.09009        2.12281
H          4.06573        2.96378        2.57668
H          3.99595        1.19304        2.63597
H          2.32132        1.41684        4.64170
H         -0.23464        2.02483        0.83430
H         -0.11375        0.27843        0.46576
H          1.16550        1.40143       -0.08334
H          4.90137        2.05921        0.43608
H          3.41835        1.10421        0.17430
H          3.35238        2.89452        0.11772
H          1.46068        3.38504        5.83236
H          1.12923        4.25408        4.20171
