24
3-ETHYL-1-HEXENE.gamout	Energy:    -314.2459956
C          0.21769        0.03031        0.26470
C          1.48960        0.84856        0.01643
C          1.25233        2.36574        0.05168
C          2.52486        3.21588       -0.17472
C          3.09369        2.98251       -1.55236
C          2.26179        4.73121        0.02783
C          4.32531        2.51761       -1.82935
C          1.89054        5.14239        1.45836
H          0.42158       -1.05796        0.23538
H         -0.22664        0.26141        1.25471
H         -0.55340        0.24709       -0.50261
H          1.92996        0.56759       -0.96271
H          2.25638        0.58943        0.77851
H          0.80440        2.63525        1.03063
H          0.49663        2.64446       -0.71713
H          3.28955        2.89967        0.57097
H          2.41917        3.24040       -2.39099
H          3.17712        5.27916       -0.27633
H          1.46483        5.05385       -0.67765
H          4.67781        2.39349       -2.86397
H          5.02805        2.24948       -1.02433
H          1.79891        6.24325        1.53383
H          0.92568        4.71400        1.79490
H          2.67076        4.82103        2.17807
