24
3-ETHYL-3-PENTANOL.gamout	Energy:    -351.3659311
C         -1.27998       -0.73474        0.42951
C         -1.35896       -2.22925        0.09079
C          0.00153        0.00439       -0.01708
C         -0.02205        1.47352        0.48259
C         -1.24920        2.30130        0.07827
C          1.26868       -0.72442        0.50130
C          2.61767       -0.09164        0.12659
O         -0.02773       -0.02681       -1.46409
H         -2.13428       -0.21788       -0.04965
H         -1.39384       -0.58565        1.52393
H         -0.62283       -2.83247        0.65695
H         -2.36340       -2.62313        0.33930
H         -1.18605       -2.39942       -0.98906
H          0.08641        1.46521        1.58829
H          0.88901        1.97808        0.09744
H         -1.42448        2.23419       -1.01274
H         -2.16964        1.96462        0.59266
H         -1.09814        3.36667        0.33672
H          1.19284       -0.80833        1.60657
H          1.24300       -1.75817        0.10583
H          2.72734        0.02427       -0.97182
H          2.76832        0.90089        0.59292
H          3.44959       -0.74156        0.45867
H          0.74282        0.46744       -1.79646
