24
3-ETHYL-O-XYLENE.gamout	Energy:    -389.2346961
C          1.57762        0.71389        3.79917
C          0.88345        1.74703        4.71043
C          2.77182        1.25761        3.03055
C          4.06092        1.37583        3.61428
C          2.58715        1.64883        1.68827
C          4.33243        0.95697        5.04171
C          5.13810        1.88812        2.84060
C          3.64476        2.15818        0.92547
C          6.52427        2.01193        3.43297
C          4.91455        2.27487        1.50754
H          1.88205       -0.16607        4.40228
H          0.84121        0.33085        3.06483
H          1.57425        2.13407        5.48497
H          0.01166        1.29756        5.22407
H          0.53200        2.61511        4.11924
H          1.59141        1.53686        1.23521
H          5.12187        0.17854        5.08312
H          3.44116        0.54854        5.54361
H          4.70082        1.80763        5.65292
H          3.48550        2.45536       -0.12312
H          6.53537        2.66617        4.33035
H          7.23292        2.43357        2.69708
H          6.92015        1.02780        3.76164
H          5.75247        2.67255        0.91865
