29
3-ETHYL-3-METHYLHEXANE.gamout	Energy:    -354.7564602
C          3.50072        2.83528        3.14641
C          2.44909        1.72049        3.40354
C          2.18647        0.97835        2.05719
C          1.09802        2.29657        3.92553
C          3.01948        0.67262        4.37788
C          3.92834        3.71742        4.32883
C          1.52242        1.78194        0.93164
C          0.94348        2.54779        5.43402
C          5.07570        4.67001        3.97067
H          4.40939        2.34766        2.72658
H          3.12000        3.49823        2.34190
H          1.55776        0.09109        2.28330
H          3.15712        0.57784        1.69301
H          0.29195        1.59337        3.62568
H          0.88696        3.23831        3.37833
H          3.29295        1.10297        5.35844
H          3.93098        0.20944        3.95082
H          2.28821       -0.13978        4.56489
H          3.06443        4.31489        4.68299
H          4.24035        3.08351        5.18385
H          0.53008        2.17165        1.22993
H          1.36764        1.14089        0.04218
H          2.14286        2.64115        0.61261
H          1.69505        3.24752        5.84489
H          1.01590        1.60826        6.01532
H         -0.05460        2.98162        5.64095
H          5.97739        4.10737        3.65634
H          5.35276        5.29742        4.83848
H          4.80095        5.35037        3.13841
