32
3-ETHYL-2,3,4-TRIMETHYLPENTANE.gamout	Energy:    -394.0338937
C         -0.63028       13.47062       -0.04389
C          0.59868       14.39996       -0.11513
C          2.02772       13.72598       -0.01746
C          0.44254       15.35747       -1.31171
C          2.52814       13.12439       -1.39055
C          3.02156       14.84629        0.38602
C          2.04168       12.63509        1.08908
C          1.64812       12.02505       -2.01643
C          3.98420       12.60837       -1.35484
C          1.69965       13.08497        2.52037
H         -1.54854       14.08568        0.04044
H         -0.74322       12.83879       -0.94313
H         -0.60809       12.80220        0.83541
H          0.53692       15.03438        0.79610
H          1.26980       16.08803       -1.38926
H         -0.49596       15.93852       -1.21800
H          0.38515       14.80828       -2.27253
H          2.52677       13.98185       -2.09664
H          3.98043       14.43036        0.74755
H          2.61109       15.47575        1.19786
H          3.25125       15.51424       -0.46627
H          1.36117       11.81163        0.79767
H          3.05466       12.18667        1.10963
H          2.13861       11.62889       -2.92854
H          0.65068       12.39035       -2.31790
H          1.50030       11.16560       -1.33274
H          4.30764       12.33974       -2.38017
H          4.69882       13.36017       -0.97599
H          4.09344       11.69406       -0.73723
H          1.75062       12.21748        3.20579
H          2.41152       13.84264        2.90167
H          0.68184       13.51330        2.61162
