26
3-ETHYLHEXANE.gamout	Energy:    -315.4742617
C          4.25522        2.62917        1.25396
C          2.77025        2.63295        1.68736
C          2.07008        1.32290        1.22826
C          2.04943        3.90005        1.17955
C          5.11850        3.78745        1.77896
C          1.12859        0.68330        2.25936
C          0.58201        4.05041        1.60125
C          6.60482        3.62331        1.44212
H          4.30162        2.60311        0.14155
H          4.70971        1.67337        1.59470
H          2.75328        2.65966        2.80226
H          1.51725        1.51944        0.28441
H          2.84823        0.57785        0.95937
H          2.11987        3.91506        0.06871
H          2.60779        4.79248        1.52837
H          4.99329        3.85227        2.88233
H          4.75851        4.75521        1.37233
H          0.30340        1.36126        2.55194
H          1.67866        0.41347        3.18357
H          0.67279       -0.24494        1.86048
H         -0.05761        3.24718        1.18547
H          0.47750        4.03017        2.70493
H          0.16951        5.01454        1.24628
H          7.01284        2.68942        1.87855
H          6.77126        3.57920        0.34625
H          7.20182        4.46761        1.83602
