24
3-METHYL-2-ETHYL-1-PENTENE.gamout	Energy:    -314.2497743
C          1.09934        0.98593        0.89423
C          1.99210        1.58107        1.99061
C          1.73145        3.01796        2.40656
C          2.68605        3.62802        3.43527
C          0.72728        3.75701        1.88847
C          2.70062        2.88428        4.79205
C          4.12058        3.76241        2.88074
C          1.36109        2.89969        5.53703
H          0.03043        0.97229        1.18734
H          1.39921       -0.05943        0.68757
H          1.18070        1.55053       -0.05656
H          1.92665        0.94101        2.89850
H          3.05558        1.49762        1.67733
H          2.31193        4.65646        3.63238
H          0.03692        3.36527        1.12833
H          0.56475        4.79575        2.21288
H          3.48148        3.35344        5.42695
H          3.03745        1.83701        4.63629
H          4.74441        4.35480        3.57846
H          4.12726        4.27160        1.89791
H          4.61169        2.77584        2.76065
H          1.03925        3.93863        5.75266
H          1.43519        2.36138        6.50136
H          0.55674        2.42410        4.94194
