21
3-METHYL-CIS-3-HEXENE.gamout	Energy:    -274.9678782
C          3.01866        1.63694        2.43213
C          3.79329        2.69419        2.08366
C          3.23957        4.03228        1.63181
C          5.30208        2.59660        2.11521
C          1.51404        1.54650        2.47230
C          3.30385        4.24694        0.10501
C          0.98443        0.88327        3.75715
H          3.54549        0.70940        2.72198
H          2.18860        4.13982        1.96283
H          3.80823        4.84498        2.13484
H          5.73214        3.33704        2.82443
H          5.74625        2.82136        1.12204
H          5.64610        1.58993        2.41830
H          1.05820        2.54964        2.35494
H          1.15942        0.95218        1.59880
H          2.87040        5.22814       -0.17144
H          2.73591        3.45805       -0.42599
H          4.34514        4.22330       -0.27334
H         -0.11961        0.80481        3.73650
H          1.26990        1.46432        4.65657
H          1.39325       -0.14078        3.87485
