18
3-METHYL-1-BUTANOL.gamout	Energy:    -272.7918953
C          2.50168        0.72580        1.53522
C          2.61690        1.73716        2.69455
C          1.06592        0.37978        1.12544
C          2.00762        1.20686        4.00265
C          4.08195        2.14815        2.90463
O          0.99806       -0.44060       -0.04557
H          3.04064       -0.20825        1.81741
H          3.02159        1.13088        0.64271
H          2.04994        2.64869        2.39700
H          0.51896        1.30818        0.86271
H          0.51537       -0.09674        1.96737
H          2.15198        1.93234        4.82680
H          2.49023        0.25425        4.30670
H          0.92113        1.01958        3.91096
H          4.17407        2.90743        3.70574
H          4.69885        1.27370        3.19922
H          4.52080        2.57421        1.98123
H          1.44938       -1.28302        0.14037
