13
3-METHYL-1,2-BUTADIENE.gamout	Energy:    -195.1528949
C          3.06453        2.84483        1.49281
C          2.07405        2.00917        1.21701
C          2.29894        0.51274        1.11042
C          0.65600        2.49738        0.99089
C          4.05150        3.67692        1.76769
H          1.66486       -0.03125        1.84348
H          2.01113        0.14518        0.10184
H          3.35431        0.24360        1.29331
H          0.29913        2.20372       -0.01990
H         -0.03920        2.03415        1.72407
H          0.58099        3.59534        1.08323
H          4.66360        4.13545        0.97111
H          4.30810        3.95124        2.80615
