23
3-METHYLHEXANE.gamout	Energy:    -276.1933018
C          3.20534        3.32600        1.12330
C          4.04251        2.14193        1.65493
C          1.77100        3.41200        1.66924
C          5.53602        2.33972        1.31518
C          3.51502        0.79212        1.14388
C          6.48813        1.31379        1.94279
C          1.01096        4.65870        1.19585
H          3.73459        4.27073        1.37599
H          3.17855        3.28252        0.01098
H          3.95240        2.14774        2.76658
H          1.19790        2.50662        1.37836
H          1.80971        3.40247        2.78033
H          5.65763        2.33491        0.20896
H          5.83360        3.35649        1.64734
H          3.60626        0.73337        0.03891
H          4.07773       -0.05782        1.57369
H          2.45025        0.63835        1.40241
H          7.54463        1.56438        1.72497
H          6.36976        1.28649        3.04550
H          6.31083        0.28866        1.56180
H          0.91944        4.68217        0.09042
H         -0.01358        4.69086        1.61490
H          1.53056        5.58863        1.50500
