24
3-METHYL-2-ISOPROPYL-1-BUTENE.gamout	Energy:    -314.2478920
C          0.06300       19.32847       -0.64688
C          1.35095       19.80256        0.05710
C          1.28180       21.28606        0.43107
C          1.68183       18.91228        1.26997
C          2.26819       22.23945       -0.22932
C          0.37589       21.74552        1.31851
C          3.72704       21.90740        0.14110
C          2.08830       22.29745       -1.75906
H          0.15288       18.27076       -0.96805
H         -0.81061       19.40375        0.03072
H         -0.15110       19.94390       -1.54080
H          2.18032       19.68271       -0.66995
H          2.62449       19.22869        1.75556
H          1.79024       17.85200        0.96377
H          0.87912       18.96249        2.03260
H          2.04428       23.25317        0.16888
H          0.32978       22.81222        1.58231
H         -0.35004       21.08464        1.81474
H          4.41856       22.64822       -0.30585
H          3.87335       21.91953        1.23768
H          4.02957       20.90826       -0.23290
H          2.78044       23.04207       -2.19848
H          1.05509       22.58535       -2.02961
H          2.30909       21.32250       -2.23964
