16
3-METHYL-1,4-PENTADIENE.gamout	Energy:    -234.4426222
C          1.78568        1.28739        1.76104
C          3.03437        1.69996        1.01070
C          4.27436        1.26442        1.76241
C          3.04876        3.23182        0.78637
C          0.82118        0.48202        1.28303
C          5.22394        0.44081        1.28574
H          1.68277        1.70616        2.77930
H          3.03008        1.19647        0.02025
H          4.38398        1.68175        2.78053
H          3.05281        3.77496        1.75386
H          3.95218        3.53428        0.22335
H          2.15226        3.55079        0.22146
H          0.88475        0.04240        0.27481
H         -0.06667        0.23155        1.88120
H          5.15305        0.00186        0.27774
H          6.10644        0.17424        1.88491
