16
3-METHYL-1-PENTYNE.gamout	Energy:    -234.4240636
C          0.93263        3.34836        1.50266
C          1.79761        2.11839        1.79260
C          3.18169        2.13115        1.09279
C          3.93905        0.80274        1.31272
C          3.99541        3.27748        1.51976
C          4.66914        4.22904        1.89275
H          1.42808        4.27569        1.85073
H          0.74130        3.45478        0.41574
H         -0.04629        3.27179        2.01369
H          1.26931        1.19954        1.46235
H          1.95814        2.01138        2.88594
H          3.00096        2.24680       -0.00113
H          4.91411        0.80838        0.79124
H          4.12569        0.63687        2.39138
H          3.33905       -0.04392        0.92621
H          5.26920        5.06676        2.21591
