29
3-METHYLOCTANE.gamout	Energy:    -354.7638414
C          4.48700        0.57741        0.20360
C          3.23760       -0.31189        0.20937
C          1.92177        0.47668        0.14256
C          0.67515       -0.42132        0.15624
C         -0.65165        0.34969        0.09668
C         -1.91267       -0.53233       -0.01562
C         -3.15484        0.34070       -0.28900
C         -4.44199       -0.43419       -0.60045
H          4.47600        1.28027        1.06158
H          5.41581       -0.02244        0.27304
H          4.54739        1.18413       -0.72304
H          3.27734       -1.02143       -0.64548
H          3.23587       -0.94187        1.12542
H          1.87472        1.18542        0.99913
H          1.91624        1.10676       -0.77443
H          0.72211       -1.12326       -0.70604
H          0.70530       -1.05535        1.06769
H         -0.74523        1.00476        0.99205
H         -0.62554        1.03417       -0.77892
H         -3.32208        1.00824        0.58528
H         -2.92557        1.01395       -1.14175
H         -4.29377       -1.12299       -1.45700
H         -4.78317       -1.03884        0.26216
H         -5.26740        0.25639       -0.86311
C         -2.10178       -1.42227        1.22248
H         -1.76830       -1.19912       -0.89743
H         -2.25650       -0.80131        2.12959
H         -1.22268       -2.06971        1.40030
H         -2.97802       -2.08953        1.11737
