24
3-METHYL-CIS-2-HEPTENE.gamout	Energy:    -314.2542367
C          0.36870       19.85938       -0.67226
C          1.20115       20.75646        0.25185
C          1.18880       22.23550       -0.16005
C          2.03733       23.13388        0.76802
C          1.99033       24.60425        0.40703
C          2.96702       25.24553       -0.27806
C          0.75091       25.34211        0.85624
C          4.25911       24.68501       -0.80504
H          0.40162       18.80120       -0.34760
H         -0.69423       20.17539       -0.68349
H          0.73988       19.90247       -1.71645
H          2.25236       20.39637        0.27248
H          0.82543       20.66409        1.29420
H          0.14014       22.60205       -0.17748
H          1.56655       22.33685       -1.20008
H          3.08178       22.76491        0.76281
H          1.67073       23.00910        1.81112
H          2.80393       26.31726       -0.48669
H          0.65687       25.32454        1.96383
H          0.75923       26.39909        0.52869
H         -0.17038       24.86829        0.45588
H          4.40368       23.61763       -0.55529
H          4.30581       24.77739       -1.91138
H          5.13098       25.24990       -0.40891
