19
3-METHYL-1-HEXYNE.gamout	Energy:    -273.7093926
C          0.52779        3.40035        1.08214
C          1.96977        3.41409        1.60555
C          2.72474        2.10575        1.33802
C          4.19814        2.10179        1.82565
C          4.98989        3.14602        1.16194
C          4.85333        0.71488        1.64889
C          5.64300        4.01179        0.59465
H          0.50132        3.26158       -0.01792
H         -0.06155        2.57711        1.53611
H          0.00574        4.34976        1.31198
H          1.96810        3.61315        2.69923
H          2.52812        4.25399        1.14261
H          2.71003        1.87361        0.25152
H          2.20522        1.26534        1.84623
H          4.18900        2.34059        2.91444
H          4.87949        0.42913        0.57926
H          5.89194        0.71059        2.02867
H          4.27578       -0.05204        2.20081
H          6.22423        4.77577        0.10015
