13
3-METHYL-1-BUTYNE.gamout	Energy:    -195.1384751
C          3.07530        2.17200        0.99125
C          1.74622        2.16240        1.61870
C          0.95692        0.89281        1.23180
C          0.96116        3.44882        1.28228
C          4.17352        2.18037        0.45092
H          1.90536        2.14015        2.72061
H         -0.02020        0.87714        1.75349
H          0.76850        0.86774        0.14082
H          1.51412       -0.02204        1.50522
H          0.77303        3.51700        0.19313
H         -0.01578        3.44529        1.80418
H          1.52072        4.35048        1.59195
H          5.14481        2.18750       -0.02007
