21
3-METHYL-3-PENTANOL.gamout	Energy:    -312.0834330
C          0.01281        1.50819       -0.46549
C         -0.00013        0.04169       -0.02239
C          1.25516       -0.31215        0.81577
C          2.60629       -0.08192        0.13263
C         -1.25596       -0.29312        0.82245
C         -2.60786       -0.04411        0.14720
O         -0.00999       -0.72433       -1.24994
H          0.88972        1.71023       -1.10631
H         -0.89072        1.74732       -1.05451
H          0.05064        2.17970        0.41323
H          1.20696        0.26100        1.76609
H          1.16470       -1.38067        1.11239
H          2.64914       -0.58862       -0.85096
H          2.80799        0.99406       -0.03257
H          3.42888       -0.47830        0.75799
H         -1.17915       -1.36264        1.11858
H         -1.19455        0.28033        1.77194
H         -2.79310        1.03388       -0.02401
H         -2.66646       -0.55707       -0.83233
H         -3.43200       -0.42297        0.78121
H         -0.00553       -1.67122       -1.01949
