21
4,4-DIMETHYL-TRANS-2-PENTENE.gamout	Energy:    -274.9674474
C          3.05942        1.59200        1.73207
C          1.72890        2.05623        2.30405
C          4.25906        2.20055        1.81085
C          1.83835        3.39378        3.05319
C          1.20793        0.96935        3.27495
C          0.72497        2.20610        1.13582
C          5.54047        1.67926        1.21446
H          3.00319        0.63064        1.18681
H          4.34036        3.16077        2.34948
H          2.19316        4.20370        2.38635
H          0.84915        3.69360        3.44957
H          2.53640        3.32412        3.91047
H          0.20880        1.24583        3.66799
H          1.89394        0.84031        4.13448
H          1.11316       -0.01076        2.76691
H         -0.27846        2.48444        1.51713
H          0.62366        1.25681        0.57384
H          1.05565        2.98839        0.42591
H          5.39555        0.71566        0.68711
H          5.96910        2.40332        0.48894
H          6.31346        1.52614        1.99754
