21
4,4-DIMETHYL-1-PENTENE.gamout	Energy:    -274.9626948
C          3.37023        2.62711        2.37870
C          1.93078        2.03128        2.48857
C          3.52170        3.88001        1.55725
C          0.96328        3.05087        3.12100
C          2.00083        0.78189        3.38931
C          1.42118        1.62702        1.09352
C          4.26165        3.99204        0.43749
H          3.71995        2.83544        3.41461
H          4.04286        1.84427        1.96969
H          2.99348        4.77830        1.92343
H         -0.03955        2.60055        3.26505
H          0.83411        3.94748        2.48441
H          1.32646        3.38446        4.11367
H          2.69120        0.02381        2.96849
H          1.00301        0.31080        3.48874
H          2.35683        1.03680        4.40773
H          2.08497        0.87048        0.63005
H          1.37889        2.49833        0.41253
H          0.40502        1.19082        1.15844
H          4.33902        4.94551       -0.10424
H          4.82114        3.13571        0.02784
