22
4,4-DIMETHYLCYCLOHEXENE.gamout	Energy:    -313.0545673
C          0.72651        2.15065        1.42064
C          2.15374        2.12843        1.99563
C          2.29050        0.93826        2.96424
C          2.43356        3.46068        2.73234
C          3.17928        1.98168        0.84366
C          3.85272        3.54491        3.31709
C          4.58974        2.34814        1.23600
C          4.89328        3.04744        2.34879
H          0.57326        3.02370        0.75526
H         -0.02676        2.20663        2.23169
H          0.51610        1.23511        0.83098
H          2.00435       -0.00834        2.46496
H          1.63129        1.06477        3.84621
H          3.32926        0.82228        3.32668
H          1.67976        3.60641        3.53367
H          2.28914        4.29124        2.00964
H          2.86329        2.61231       -0.01897
H          3.15719        0.93856        0.45980
H          3.92045        2.96376        4.26610
H          4.08410        4.59103        3.61150
H          5.40504        2.02656        0.56772
H          5.94822        3.26718        2.57474
