16
4-CHLORO-M-PHENYLENEDIAMINE.gamout	Energy:    -802.2541875
Cl        -2.83915        0.41742        0.27444
N         -1.35743       -2.20167        0.15674
N          3.08814       -0.24662       -0.09519
C         -0.54020       -1.09436        0.11884
C          1.71539       -0.09121       -0.00880
C          0.86661       -1.21824        0.03090
C         -1.08251        0.21784        0.16648
C          1.14070        1.20406        0.04119
C         -0.25021        1.34140        0.12806
H          1.30602       -2.22714       -0.00717
H          1.78469        2.09564        0.01149
H         -0.70152        2.34192        0.16636
H         -0.97347       -3.13958        0.12239
H         -2.36564       -2.08690        0.21996
H          3.70455        0.55868       -0.12431
H          3.51710       -1.16519       -0.13283
