24
4-ETHYL-CIS-2-HEXENE.gamout	Energy:    -314.2494589
C          1.40478        0.77888        1.03952
C          2.55224        0.18027        0.27169
C          2.87982       -1.12439        0.14943
C          2.19581       -2.32660        0.75450
C          1.53774       -3.20414       -0.34227
C          0.45416       -2.49216       -1.16152
C          3.21644       -3.13442        1.59742
C          2.61262       -4.27849        2.42318
H          0.74299        1.35886        0.36102
H          1.76995        1.49973        1.80273
H          0.78281        0.02179        1.55073
H          3.19173        0.91029       -0.25511
H          3.76276       -1.36714       -0.46924
H          1.38821       -1.98222        1.43719
H          1.09884       -4.10014        0.14112
H          2.33493       -3.57995       -1.02109
H         -0.36661       -2.12894       -0.51002
H          0.00890       -3.17556       -1.90989
H          0.86505       -1.61631       -1.70048
H          3.73610       -2.43071        2.28052
H          4.00044       -3.53116        0.91608
H          1.80309       -3.90343        3.08195
H          3.38200       -4.74478        3.06917
H          2.18805       -5.08117        1.78907
