14
4-HYDROXYBENZONITRILE.gamout	Energy:    -399.4468962
O          3.22144        0.03569       -0.00043
N         -3.56503        0.01110       -0.00003
C          1.85870       -0.01833        0.00016
C         -0.95825       -0.00329       -0.00000
C          1.14638       -1.23490        0.00019
C          1.16248        1.20646        0.00011
C         -0.25071       -1.22728        0.00003
C         -0.23238        1.21185        0.00008
C         -2.39081        0.00488       -0.00017
H          1.68793       -2.19270        0.00010
H          1.73143        2.14469        0.00002
H         -0.80559       -2.17452       -0.00002
H         -0.77570        2.16533        0.00001
H          3.59083       -0.86558       -0.00046
