17
4-HYDROXYBENZYL_ALCOHOL.gamout	Energy:    -421.7227275
O         -3.17923       -0.48453        0.67169
O          3.19097       -0.02980        0.20735
C         -0.98154        0.07775       -0.27438
C         -0.33047       -1.15171       -0.04797
C         -0.19767        1.24643       -0.32520
C         -2.48705        0.13188       -0.42225
C          1.05900       -1.21309        0.11481
C          1.19365        1.20165       -0.16629
C          1.82793       -0.03294        0.05450
H         -0.92698       -2.07380        0.00998
H         -0.68898        2.21618       -0.49491
H         -2.80706        1.19002       -0.55472
H         -2.82324       -0.42551       -1.32126
H          1.55136       -2.18228        0.29049
H          1.80380        2.11343       -0.20139
H         -2.79360       -0.13988        1.49778
H          3.50522       -0.93924        0.35611
