16
4-METHYL-2-PENTYNE.gamout	Energy:    -234.4345586
C          1.97189        4.25208        1.06406
C          2.10808        2.99722        1.95650
C          0.90384        2.04722        1.77011
C          3.38454        2.30043        1.72656
C          4.44756        1.71973        1.53326
C          5.72264        1.03362        1.32199
H          1.02785        4.78237        1.29695
H          2.81503        4.94974        1.22216
H          1.95686        3.96764       -0.00634
H          2.10523        3.33921        3.01641
H          0.85365        1.68514        0.72456
H          0.98154        1.16654        2.43452
H         -0.04155        2.57633        2.00073
H          6.27275        1.45251        0.45424
H          6.38132        1.12601        2.21005
H          5.57338       -0.04881        1.12965
