19
4-METHYLCYCLOHEXENE.gamout	Energy:    -273.7688823
C          0.50133        2.26820        1.64398
C          2.01021        2.11410        1.87085
C          2.77911        3.41440        1.57452
C          2.60040        0.95724        1.04172
C          4.26912        3.29227        1.93184
C          4.11028        0.94385        1.04267
C          4.85850        1.98601        1.45958
H          0.28699        2.55049        0.59213
H         -0.04035        1.32481        1.85577
H          0.07669        3.05584        2.29695
H          2.17615        1.86856        2.94503
H          2.67899        3.64886        0.49168
H          2.32125        4.26301        2.12212
H          2.21840       -0.01303        1.42622
H          2.22548        1.01688       -0.00767
H          4.84218        4.13812        1.49499
H          4.41269        3.38810        3.03320
H          4.61233        0.02721        0.69243
H          5.95614        1.89477        1.45642
