21
4-METHYL-TRANS-2-HEXENE.gamout	Energy:    -274.9663974
C          5.69338        0.81363        1.28217
C          4.30080        1.30437        0.86733
C          3.43293        1.86450        2.02459
C          3.11642        0.79049        3.08527
C          2.15853        2.45777        1.47231
C          1.80100        3.75584        1.53367
C          0.54693        4.34413        0.95004
H          6.26770        1.62160        1.77940
H          5.64610       -0.04655        1.97912
H          6.27433        0.48549        0.39841
H          4.40480        2.10150        0.10348
H          3.74059        0.48066        0.37279
H          4.00728        2.68244        2.51427
H          4.03931        0.34031        3.49779
H          2.54254        1.22317        3.92620
H          2.50836       -0.02537        2.64275
H          1.48318        1.74539        0.95952
H          2.48133        4.46195        2.04522
H          0.78470        5.12629        0.19685
H         -0.07600        3.57314        0.45649
H         -0.07032        4.84247        1.72795
