24
4-METHYL-3-ETHYL-1-PENTENE.gamout	Energy:    -314.2417401
C          2.31130        5.49510        1.39252
C          2.13382        3.97810        1.58723
C          3.19756        3.38135        2.54660
C          0.71016        3.70099        2.10527
C          3.17198        1.87045        2.67466
C          4.66267        3.82712        2.25144
C          2.69487        0.97046        1.79470
C          5.18726        3.45706        0.85998
H          2.29155        6.02121        2.36968
H          1.48690        5.90759        0.77775
H          3.26002        5.75519        0.88833
H          2.24592        3.49425        0.59269
H          2.96609        3.78654        3.55913
H          0.50122        2.62157        2.21253
H         -0.05031        4.13203        1.42450
H          0.57202        4.17141        3.10069
H          3.66120        1.48429        3.58752
H          4.73914        4.92109        2.41146
H          5.31709        3.36644        3.02140
H          2.19912        1.26422        0.85698
H          2.77914       -0.10919        1.98754
H          6.26265        3.70296        0.76792
H          4.65341        3.99933        0.05451
H          5.07043        2.37277        0.66652
