21
4-METHYL-2-PENTANOL.gamout	Energy:    -312.0815268
C          2.42072        2.66558        2.71759
C          3.90485        2.71746        3.13722
C          1.53737        1.60085        3.39069
C          4.63383        3.82468        2.35838
C          4.08928        2.91009        4.65073
C          2.01636        0.17236        3.15103
O          0.19418        1.66436        2.87145
H          1.96944        3.66584        2.91190
H          2.35846        2.50381        1.62074
H          4.37137        1.74755        2.85612
H          1.50569        1.78664        4.48985
H          5.70678        3.86438        2.62987
H          4.56651        3.66798        1.26380
H          4.19340        4.81803        2.58455
H          5.16309        2.99912        4.90485
H          3.58503        3.83639        4.99677
H          3.67828        2.06486        5.23450
H          2.13515       -0.02124        2.06685
H          1.27564       -0.54273        3.55384
H          2.98553       -0.01281        3.65133
H         -0.12861        2.57916        2.95404
