24
4-METHYL-2-ETHYL-1-PENTENE.gamout	Energy:    -314.2511292
C          0.31319       19.33345        1.36963
C          0.85047       19.43716       -0.07246
C          0.92767       20.85183       -0.61607
C          1.94558       21.79353       -0.00213
C          0.09962       21.25815       -1.60317
C          3.43387       21.41047       -0.21571
C          3.81673       21.40473       -1.70289
C          4.35360       22.35352        0.57651
H          0.24781       18.27264        1.67987
H          0.96583       19.85138        2.09986
H         -0.69920       19.77637        1.44640
H          0.20499       18.83565       -0.74271
H          1.85836       18.96942       -0.11432
H          1.78123       22.81337       -0.40827
H          1.76352       21.86101        1.09263
H          0.13913       22.28297       -2.00104
H         -0.64878       20.57990       -2.04067
H          3.57957       20.38220        0.18315
H          4.87084       21.09360       -1.83752
H          3.17940       20.72070       -2.29409
H          3.70465       22.42029       -2.13564
H          5.41557       22.05867        0.46648
H          4.11519       22.35319        1.65848
H          4.25560       23.39654        0.20944
