18
4-METHYL-CIS-2-PENTENE.gamout	Energy:    -235.6804458
C          3.10435        1.97768        1.16387
C          3.45675        2.80312        2.37804
C          2.01155        1.20971        0.95941
C          4.77812        2.31312        3.00743
C          3.55459        4.29817        2.00868
C          0.85598        0.97878        1.89506
H          3.84966        2.02214        0.34805
H          2.65506        2.68961        3.13730
H          1.94523        0.68220       -0.00818
H          5.61412        2.39868        2.28275
H          5.03824        2.92137        3.89636
H          4.70752        1.25370        3.31884
H          3.81526        4.90857        2.89625
H          2.59867        4.67427        1.59707
H          4.34091        4.46353        1.24328
H          0.96069        1.52399        2.85101
H          0.74379       -0.10199        2.12863
H         -0.10152        1.29312        1.42641
