21
4-METHYL-1-HEXENE.gamout	Energy:    -274.9565392
C          2.76266        1.73754        3.25666
C          4.22354        2.06005        2.83433
C          4.34785        3.33519        1.96316
C          4.94806        0.84566        2.23341
C          1.79462        1.34634        2.17211
C          4.06456        3.18391        0.46085
C          0.61296        1.94998        1.94198
H          2.81299        0.90211        3.99244
H          2.35209        2.60948        3.80760
H          4.73869        2.29753        3.79047
H          5.37458        3.73719        2.09041
H          3.67111        4.10843        2.38413
H          6.01610        1.07382        2.04306
H          4.91115       -0.01816        2.92587
H          4.50160        0.52062        1.27331
H          2.06800        0.47148        1.55602
H          4.77345        2.48347       -0.02267
H          3.03854        2.81609        0.27181
H          4.17248        4.16101       -0.04859
H         -0.07099        1.60142        1.15490
H          0.29509        2.82109        2.53697
