16
4-METHYL-1-PENTYNE.gamout	Energy:    -234.4251162
C          3.62910        0.94746        1.14003
C          4.35191        2.10696        1.87745
C          2.18140        0.90944        1.34575
C          3.86113        3.47810        1.39460
C          5.86994        1.96073        1.71083
C          0.97278        0.88530        1.53317
H          3.84253        1.02390        0.05004
H          4.06267       -0.02105        1.47063
H          4.10783        2.01104        2.95743
H          4.35152        4.29364        1.96058
H          4.09511        3.62537        0.31943
H          2.76679        3.58101        1.52123
H          6.15965        2.03080        0.64178
H          6.40758        2.75967        2.25673
H          6.22539        0.98543        2.09691
H         -0.09428        0.85870        1.69498
