21
5-ETHYLIDENE-2-NORBORNENE.gamout	Energy:    -349.8842925
C         -1.55788        1.01095       -0.16573
C         -1.23010       -1.11771       -0.86743
C         -1.21438        0.29966       -1.50036
C         -0.37074        0.50838        0.73503
C         -0.19470       -0.92993        0.25416
C         -2.77930        0.20387        0.25970
C         -2.58335       -1.07061       -0.15201
C          0.68716       -1.85085        0.69240
C          1.68225       -1.64873        1.81317
H         -1.67508        2.10908       -0.19467
H         -1.05037       -1.98343       -1.52775
H         -0.22830        0.58589       -1.91641
H         -2.00060        0.42885       -2.26729
H         -0.59992        0.58314        1.81682
H          0.54548        1.10709        0.54806
H         -3.58661        0.57620        0.90232
H         -3.19226       -1.95128        0.08654
H          0.67353       -2.83727        0.20076
H          2.28012       -2.56200        1.99134
H          1.18052       -1.39016        2.77032
H          2.39735       -0.82574        1.59680
