24
5-METHYL-TRANS-3-HEPTENE.gamout	Energy:    -314.2473225
C          1.02594        2.92634        3.90546
C          1.46570        2.11923        2.66955
C          2.95683        2.14542        2.44420
C          3.75500        1.05964        2.38417
C          5.26319        1.06863        2.16811
C          5.99986        1.75776        3.34431
C          5.64006        1.67438        0.80151
C          7.52334        1.57526        3.33338
H          1.30959        3.99407        3.80863
H         -0.07255        2.88197        4.04024
H          1.50420        2.53432        4.82472
H          1.12681        1.06641        2.76337
H          0.95010        2.53355        1.77364
H          3.40166        3.15205        2.32901
H          3.28105        0.06834        2.49720
H          5.59572        0.00741        2.16185
H          5.74677        2.83978        3.34320
H          5.58954        1.35372        4.29229
H          5.38941        2.75366        0.76713
H          6.72220        1.56794        0.59412
H          5.08679        1.17406       -0.01574
H          7.98409        2.03092        4.23137
H          7.79199        0.49907        3.32840
H          7.99502        2.04338        2.44703
