19
5-METHYL-1-HEXYNE.gamout	Energy:    -273.7091713
C          3.45303        2.47180        1.79014
C          2.07026        2.06039        1.24979
C          4.62728        1.65496        1.20297
C          1.70251        0.61744        1.62772
C          0.99499        3.04264        1.73755
C          5.93816        2.11028        1.66607
C          7.02650        2.50274        2.06347
H          3.63023        3.54397        1.56960
H          3.46324        2.37658        2.89705
H          2.11021        2.12498        0.13837
H          4.50966        0.58134        1.46088
H          4.59287        1.71064        0.09249
H          1.68609        0.49295        2.73040
H          0.69825        0.35152        1.24569
H          2.41668       -0.12007        1.21471
H         -0.00092        2.78467        1.32743
H          0.91744        3.02356        2.84429
H          1.23014        4.08109        1.43369
H          7.99134        2.84211        2.40911
