24
5-METHYL-1-HEPTENE.gamout	Energy:    -314.2452111
C          4.05341        2.53923        2.18447
C          5.28707        2.13829        1.34693
C          6.58187        2.12920        2.18986
C          5.09882        0.77933        0.65370
C          2.76197        2.76026        1.36532
C          7.03924        3.49830        2.71004
C          1.60542        3.25063        2.19474
C          0.88746        4.36285        1.95441
H          3.87173        1.75761        2.95578
H          4.27465        3.47287        2.73915
H          5.41118        2.91286        0.55454
H          7.39270        1.69351        1.56890
H          6.44868        1.42711        3.04347
H          4.20489        0.76162        0.00205
H          4.98790       -0.03145        1.40323
H          5.97497        0.53546        0.02147
H          2.47002        1.80123        0.88265
H          2.96252        3.47819        0.54160
H          8.00870        3.41643        3.23934
H          7.17489        4.21542        1.87458
H          6.31574        3.94439        3.42000
H          1.33980        2.62426        3.06616
H          1.11257        5.01647        1.09611
H          0.04825        4.66052        2.59965
