22
5-METHYL-2-HEXANONE.gamout	Energy:    -350.1640681
C          1.87223        2.21435        1.75155
C          3.15705        2.85939        1.20149
C          1.94548        1.76013        3.22425
C          4.35404        1.90488        1.16916
C          2.26184        2.91686        4.18524
C          0.64194        1.05665        3.62884
C          5.70584        2.48007        1.54902
O          4.22687        0.73327        0.83284
H          1.03417        2.93494        1.63451
H          1.63113        1.33768        1.11864
H          2.98907        3.16449        0.14409
H          3.42077        3.78696        1.74685
H          2.76520        1.01307        3.30785
H          2.28516        2.56325        5.23465
H          1.49203        3.71392        4.11690
H          3.24351        3.38238        3.97456
H          0.69950        0.67859        4.66780
H          0.42935        0.19483        2.96661
H         -0.22234        1.75097        3.57004
H          6.47808        1.69309        1.52638
H          5.98383        3.29982        0.85282
H          5.65331        2.93566        2.55903
