24
6-METHYL-CIS-2-HEPTENE.gamout	Energy:    -314.2465325
C         -1.44134       -2.53192       -0.26575
C         -0.02459       -2.03551       -0.35420
C          0.39384       -0.80431       -0.72330
C         -0.45155        0.36363       -1.17218
C          0.11750        1.76328       -0.84890
C          0.12668        2.22441        0.63032
C         -1.24868        2.07852        1.29765
C          1.22614        1.56856        1.48130
H         -1.60310       -3.39384       -0.94913
H         -2.18683       -1.75728       -0.52407
H         -1.66938       -2.90123        0.75675
H          0.75299       -2.76955       -0.08181
H          1.48260       -0.62610       -0.73430
H         -1.48452        0.27510       -0.78006
H         -0.55778        0.30848       -2.28016
H         -0.47722        2.50335       -1.42343
H          1.15191        1.83408       -1.24875
H          0.35771        3.31193        0.59345
H         -1.49887        1.01432        1.48255
H         -2.05308        2.51327        0.67163
H         -1.26728        2.59504        2.27726
H          1.24724        2.00893        2.49876
H          2.22693        1.71667        1.03012
H          1.06200        0.47867        1.59158
