20
6-METHYLQUINOLINE.gamout	Energy:    -440.9465664
C         -3.92596       -5.74879        0.67081
C         -4.87565       -6.90965        0.48110
C         -4.36963       -4.50150        1.09755
C         -2.52929       -5.92341        0.40843
C         -3.46890       -3.40808        1.27608
C         -1.62482       -4.88565        0.57002
C         -2.06505       -3.59928        1.00778
C         -3.87917       -2.11464        1.71183
N         -1.14487       -2.59564        1.15754
C         -2.93534       -1.11047        1.85824
C         -1.57208       -1.40822        1.56506
H         -5.91778       -6.62944        0.72001
H         -4.85125       -7.27636       -0.56568
H         -4.59352       -7.76410        1.13006
H         -5.43845       -4.34202        1.30647
H         -2.17337       -6.91041        0.06991
H         -0.55187       -5.01478        0.36985
H         -4.94296       -1.93551        1.92559
H         -3.22174       -0.10128        2.19308
H         -0.80522       -0.61916        1.67626
