24
8-METHOXYPSORALEN.gamout	Energy:    -762.4638388
O          3.57212        1.24650        0.11687
O         -1.06741       -0.15370        0.23942
O          1.44028       -0.94984        0.34662
O         -3.20605       -0.83601        0.30010
C          1.87632        2.78179       -0.06132
C          2.20258        1.40256        0.09083
C         -0.46763        2.18945       -0.01044
C         -0.11222        0.81756        0.13991
C          1.23950        0.37882        0.19702
C          0.53463        3.17949       -0.11183
C          3.15058        3.47156       -0.12889
C         -1.87871        2.49423       -0.05113
C          4.11411        2.50946       -0.01773
C         -2.82350        1.51390        0.04949
C         -2.44805        0.11076        0.20264
C          2.77574       -1.45739        0.41750
H          0.25341        4.23314       -0.22717
H          3.32157        4.54662       -0.24534
H         -2.17515        3.54753       -0.16721
H          5.20696        2.55153       -0.01545
H         -3.90144        1.72623        0.02053
H          2.66986       -2.54832        0.53852
H          3.31463       -1.03216        1.28573
H          3.33564       -1.23379       -0.51085
