17
ACETOPHENONE.gamout	Energy:    -384.6307361
O         -2.34033       -1.37880       -0.00001
C         -0.33021       -0.10951        0.00002
C          1.08071       -0.04682        0.00001
C         -1.06391        1.09818        0.00001
C         -1.10885       -1.39685        0.00002
C          1.73839        1.19240       -0.00001
C         -0.40858        2.33230       -0.00000
C          0.99684        2.38351       -0.00001
C         -0.38782       -2.73684        0.00000
H          1.68200       -0.96421        0.00000
H         -2.15960        1.03103        0.00000
H          2.83637        1.22818       -0.00003
H         -0.99414        3.26166       -0.00001
H          1.51275        3.35312       -0.00002
H         -0.71782       -3.30739        0.88971
H         -0.71768       -3.30717       -0.88989
H          0.71305       -2.67489        0.00006
