22
ACETAL.gamout	Energy:    -387.2402192
C          5.49624        0.64475        1.91557
C          4.43672        1.72679        1.74297
O          3.19328        1.09070        1.66843
O          4.42029        2.63847        2.84389
C          2.10051        1.94868        1.32926
C          0.86387        1.08947        1.12308
C          5.27994        3.76545        2.71448
C          4.97362        4.73982        3.84181
H          5.49003       -0.03978        1.04643
H          6.50355        1.09378        2.00181
H          5.27700        0.06885        2.83339
H          4.61890        2.32284        0.80777
H          1.93872        2.69126        2.13969
H          2.35000        2.51428        0.39955
H          0.61663        0.53650        2.04925
H         -0.00136        1.72795        0.85856
H          1.02071        0.35945        0.30599
H          5.11852        4.25233        1.72204
H          6.35184        3.45560        2.75418
H          5.13907        4.26348        4.82670
H          5.63362        5.62567        3.76766
H          3.92212        5.08094        3.78839
