14
ACETOIN.gamout	Energy:    -307.4793995
O         -0.52797        0.39208       -0.65381
O          0.53090       -2.98034       -0.28653
C         -0.79687       -1.00656       -0.50814
C          0.54067       -1.75761       -0.35585
C         -1.72868       -1.30967        0.67293
C          1.80968       -0.94152       -0.30316
H         -1.25084       -1.41000       -1.44491
H         -1.29620       -0.92211        1.61600
H         -1.87552       -2.40215        0.76597
H         -2.71956       -0.83759        0.51670
H          2.67450       -1.60731       -0.14571
H          1.74136       -0.17925        0.49837
H          1.92432       -0.36719       -1.24471
H         -1.37388        0.86676       -0.72217
