6
ACETONITRILE.gamout	Energy:    -132.6591586
C          0.40553        0.89522        0.51967
C          1.86512        0.94252        0.48974
N          3.03444        0.97997        0.46551
H         -0.01854        1.78868        0.02129
H          0.03903       -0.00879       -0.00464
H          0.04184        0.86856        1.56540
