9
ACRYLIC_ACID.gamout	Energy:    -266.9935691
C          2.70194        2.33507        0.22131
C          1.82360        1.14264        0.36908
O          0.50894        1.47556        0.19338
O          2.18433        0.00206        0.61385
C          4.03741        2.23362        0.35563
H          2.20808        3.29275       -0.00100
H         -0.00582        0.64860        0.30395
H          4.69060        3.11029        0.24754
H          4.50220        1.26109        0.57839
