16
ADIPONITRILE.gamout	Energy:    -342.6883202
C         80.06367       -0.00971       -0.00016
C         81.52913       -0.05193        0.00025
C         79.49762        1.42971        0.00012
N         82.69977       -0.07201       -0.00001
C         77.96347        1.44405       -0.00005
C         77.39637        2.88289        0.00016
C         75.93087        2.92233       -0.00028
N         74.76018        2.93966       -0.00003
H         79.70339       -0.56846       -0.89018
H         79.70283       -0.56899        0.88932
H         79.88450        1.96851        0.88943
H         79.88468        1.96888       -0.88890
H         77.57674        0.90509       -0.88934
H         77.57654        0.90476        0.88895
H         77.75556        3.44241        0.89015
H         77.75617        3.44279       -0.88935
