13
ALANINE.gamout	Energy:    -323.5405338
C          2.19202        1.61065        0.36969
C          0.83913        1.02928       -0.04579
C          0.79548       -0.48512        0.17816
N         -0.25800        1.68975        0.66667
O          2.11106        2.94110        0.65967
O          3.24653        1.00282        0.38883
H          0.82788       -0.71181        1.26029
H          1.64953       -0.97876       -0.31898
H         -0.14189       -0.89735       -0.24162
H         -0.23459        2.70616        0.54049
H         -1.16382        1.35077        0.32821
H          3.02253        3.23930        0.86232
H          0.81640        1.21265       -1.15440
