15
ALLYL_ACETATE.gamout	Energy:    -345.5398484
C         -0.08041        1.23061        0.41331
C          1.03603        1.51092       -0.28061
C          2.29625        0.69912       -0.20402
O          3.39475        1.59700        0.08866
C          4.68848        1.15230        0.15639
O          5.56805        1.95822        0.38720
C          4.93981       -0.32953       -0.05520
H         -0.99250        1.83333        0.30065
H         -0.12314        0.38450        1.11714
H          1.06167        2.36963       -0.97231
H          2.20941       -0.07859        0.58366
H          2.48635        0.19339       -1.17678
H          4.62654       -0.65178       -1.06833
H          6.01950       -0.51740        0.06453
H          4.37638       -0.94272        0.67608
