4
AMMONIA.gamout	Energy:     -56.5235222
N         -0.00182       -0.02388        0.02619
H          1.02446       -0.00954        0.00271
H         -0.30606        0.95656        0.00274
H         -0.30597       -0.44279       -0.86046
