16
ANISOLE.gamout	Energy:    -346.5350733
C          5.09943        1.11604        3.01208
O          4.06809        1.74186        3.76425
C          3.02049        2.29999        3.08217
C          2.02096        2.90113        3.87466
C          2.89856        2.30404        1.67845
C          0.91653        3.50559        3.26638
C          1.78098        2.91577        1.08308
C          0.78832        3.51904        1.86521
H          5.57752        1.83270        2.31010
H          5.84540        0.76318        3.74401
H          4.70678        0.25061        2.43534
H          2.13649        2.88412        4.96682
H          3.65896        1.83891        1.04036
H          0.14348        3.97317        3.89293
H          1.69477        2.91519       -0.01280
H         -0.08037        3.99364        1.39174
