21
ASPIRIN.gamout	Energy:    -648.2556834
C          0.81907        1.19749        1.24951
C          1.58874        0.04394        0.99245
C         -0.56541        1.05557        1.57336
O          1.28238        2.48939        1.21908
C          1.01301       -1.23258        1.05099
C         -1.11068       -0.24584        1.62350
C         -1.45199        2.23226        1.85981
C         -0.34293       -1.38748        1.36756
O         -1.14577        3.41091        1.85945
O         -2.74155        1.84166        2.14594
C          2.52149        3.06056        0.96559
O          2.57602        4.26734        1.02503
C          3.71503        2.19513        0.63821
H          2.64511        0.12399        0.74236
H          1.64459       -2.10792        0.84449
H         -2.17176       -0.34065        1.87373
H         -0.80035       -2.38676        1.41502
H         -3.22674        2.67658        2.31414
H          3.94163        1.49726        1.46717
H          3.53936        1.60402       -0.28096
H          4.57644        2.86261        0.48108
