26
B-PINENE.gamout	Energy:    -390.3842436
C         -0.11419        2.47138       -0.55272
C          1.27757        2.58924        0.07863
C          1.98186        1.18693        0.20172
C          1.13174        1.02445        1.51653
C          1.11095        2.57729        1.62655
H          1.97753        2.99207        2.16784
H          0.18700        3.03483        2.03123
H          1.86669        3.40686       -0.38324
C          3.47991        1.32934        0.50816
H          3.68680        2.05501        1.31552
H          4.03030        1.66524       -0.39386
H          3.90814        0.35423        0.81547
C          1.80834        0.16733       -0.92453
H          0.75394        0.00196       -1.20982
H          2.23548       -0.81270       -0.62805
H          2.35535        0.49701       -1.83198
C         -0.29592        0.55048        1.21512
H          1.59044        0.44236        2.34065
C         -0.95517        1.37380        0.10488
H         -0.90522        0.63439        2.14012
H         -0.30788       -0.52535        0.94282
H         -0.03844        2.28655       -1.64438
H         -0.63889        3.44430       -0.44585
C         -2.22721        1.14481       -0.27756
H         -2.83980        0.35936        0.19114
H         -2.70362        1.73565       -1.07432
