15
BENZOTRIFLUORIDE.gamout	Energy:    -568.9009979
F          6.65283        3.94479       -1.76658
C          7.23963        3.00727       -0.97205
F          8.39022        2.61723       -1.58748
F          7.61100        3.64809        0.17916
C          6.32001        1.84320       -0.68481
C          6.86021        0.56901       -0.43885
C          4.92954        2.04444       -0.63210
C          6.00708       -0.50260       -0.14097
C          4.61786       -0.30676       -0.09280
C          4.08196        0.96774       -0.33684
H          7.94581        0.41746       -0.48643
H          4.51470        3.04028       -0.83133
H          6.43123       -1.49749        0.05094
H          3.95095       -1.15001        0.13357
H          2.99565        1.12639       -0.29884
