28
BENZYL_BENZOATE.gamout	Energy:    -690.7120519
C          8.15541        3.04153       -1.40865
C          7.11405        2.87287       -2.34323
C          8.27524        2.14866       -0.32533
C          9.15930        4.14296       -1.53665
C          6.20460        1.81960       -2.19421
C          7.36016        1.09888       -0.17725
C          6.32434        0.93304       -1.11191
C          9.88160        6.02905       -2.78985
O          8.90133        4.97160       -2.59028
C          9.43823        6.96464       -3.88866
O         10.11823        4.29018       -0.78972
C          8.73882        8.83862       -5.88648
C          9.72632        7.87648       -6.14167
C          8.08840        8.85970       -4.64249
C         10.07104        6.94741       -5.14763
C          8.43546        7.92810       -3.65392
H          7.03284        3.56935       -3.18589
H          9.09652        2.29692        0.38721
H          5.39671        1.69334       -2.92634
H          7.45761        0.40601        0.66850
H          5.60716        0.10847       -0.99692
H         10.00475        6.56242       -1.82645
H         10.85037        5.55274       -3.03381
H          8.48035        9.57863       -6.65409
H         10.23700        7.86270       -7.11654
H          7.31731        9.61796       -4.44252
H         10.85829        6.20711       -5.34689
H          7.93284        7.95020       -2.67660
