21
BENZYL_ACETATE.gamout	Energy:    -499.1046561
O          0.82069        3.54878        1.76088
C          1.78477        4.55083        1.32041
C          3.17562        4.02669        1.56705
C         -0.49181        3.89015        1.63202
C          3.80497        4.22156        2.81337
C          3.87873        3.34924        0.55140
C         -1.38403        2.78512        2.14935
O         -0.86947        4.94910        1.15946
C          5.10038        3.73741        3.04449
C          5.17531        2.86419        0.77799
C          5.78780        3.05936        2.02560
H          1.59178        5.48600        1.88233
H          1.60749        4.76141        0.24737
H          3.27247        4.76062        3.60976
H          3.40564        3.20314       -0.43007
H         -2.44135        3.07138        2.02468
H         -1.17687        1.84461        1.60352
H         -1.16620        2.59296        3.21767
H          5.58388        3.89564        4.01981
H          5.71745        2.33676       -0.02126
H          6.80488        2.68674        2.20215
