12
BENZENE.gamout	Energy:    -232.0854953
C          3.29619        3.40028        0.23534
C          1.89929        3.54582        0.22443
C          3.86940        2.11979        0.16130
C          1.07533        2.41129        0.13950
C          3.04548        0.98526        0.07638
C          1.64873        1.13096        0.06546
H          3.94096        4.28865        0.30185
H          1.45066        4.54810        0.28238
H          4.96319        2.00550        0.16997
H         -0.01846        2.52539        0.13099
H          3.49420       -0.01695        0.01875
H          1.00404        0.24267       -0.00114
