5
BF4-1.gamout	Energy:    -424.2309656
B          0.00016       -0.00000        0.00018
F         -0.00026       -1.16589       -0.82535
F         -0.00026        1.16589       -0.82535
F         -1.16649        0.00000        0.82495
F          1.16684        0.00000        0.82557
