22
BIPHENYL.gamout	Energy:    -462.9816597
C          2.45899        0.42077        3.86347
C          3.71341        0.58862        3.22306
C          1.32099        0.31888        3.02227
C          2.34094        0.35391        5.35871
C          3.82517        0.65127        1.82631
C          1.42851        0.38106        1.62529
C          1.08560        0.18823        5.99678
C          3.47802        0.45324        6.20097
C          2.68240        0.54786        1.01938
C          0.97151        0.12515        7.39295
C          3.36807        0.39070        7.59758
C          2.11305        0.22603        8.20170
H          4.62866        0.67299        3.82284
H          0.32370        0.18789        3.46110
H          4.81204        0.78214        1.35431
H          0.52836        0.29909        0.99538
H          0.17141        0.10587        5.39538
H          4.47598        0.58241        5.76322
H          2.76854        0.59676       -0.07476
H         -0.01633       -0.00397        7.86302
H          4.26735        0.47051        8.22894
H          2.02524        0.17668        9.29580
