25
BMIM+1.gamout	Energy:    -422.8831978
C         -0.98198        0.60179       -0.79778
C         -1.92821       -0.11402        0.17572
C         -3.39525       -0.03984       -0.28170
C         -4.33717       -0.80246        0.65785
N          0.43836        0.51598       -0.38724
C          1.16821       -0.61460       -0.31977
N          2.40464       -0.30342        0.12225
C          2.46442        1.06105        0.34365
C          1.22757        1.57536        0.02323
C          3.49268       -1.26342        0.34933
H         -1.06670        0.18121       -1.81924
H         -1.21609        1.67941       -0.86442
H         -1.62655       -1.18068        0.26239
H         -1.82297        0.33069        1.18753
H         -3.71254        1.02298       -0.34710
H         -3.48190       -0.45129       -1.31010
H         -5.38269       -0.73640        0.30572
H         -4.06659       -1.87603        0.70970
H         -4.30037       -0.39344        1.68687
H          0.82222       -1.61840       -0.58016
H          3.36905        1.55308        0.70609
H          0.85538        2.60151        0.04976
H          3.76721       -1.76024       -0.59885
H          4.36634       -0.71524        0.73582
H          3.17723       -2.01718        1.09245
