7
BORIC_ACID.gamout	Energy:    -252.3225651
O          0.84973        2.40367        0.29526
B          0.78092        1.79450       -0.94018
O          0.41259        0.47204       -0.94300
O          1.05084        2.40166       -2.16007
H          1.11443        3.33614        0.29278
H          0.38113        0.10796       -1.84321
H          1.30384        3.33725       -2.12817
