27
BUTYLCYCLOPENTANE.gamout	Energy:    -353.5584630
C         -1.28098        0.39558        0.45367
C         -0.99026       -0.92030       -0.33271
C          0.50056       -0.84208       -0.75623
C          1.15003        0.16928        0.21400
C          0.02954        1.21284        0.39461
H         -2.13830        0.95718        0.03397
H         -1.54731        0.16778        1.50566
H         -1.16939       -1.80490        0.31072
H         -1.65686       -1.03764       -1.20889
H          0.99643       -1.83067       -0.74741
H          0.58578       -0.44717       -1.79200
H          1.31584       -0.33862        1.19295
C          2.48552        0.76716       -0.24986
H          0.02268        1.88411       -0.49173
H          0.18153        1.85410        1.28382
H          2.32702        1.28116       -1.22491
C          3.63914       -0.23679       -0.38822
H          2.78824        1.56267        0.46529
H          3.37323       -1.01466       -1.13633
H          3.77200       -0.77657        0.57609
C          4.96942        0.41685       -0.78790
H          5.23528        1.19068       -0.03514
H          4.83550        0.96344       -1.74685
C          6.12207       -0.58423       -0.92236
H          5.90410       -1.34897       -1.69573
H          6.29704       -1.11936        0.03320
H          7.06722       -0.08165       -1.20509
