8
CARBAMIDE.gamout	Energy:    -225.1364256
N          0.93224        0.94915       -0.14233
C          2.06016        1.73019        0.08078
N          3.23028        1.00138        0.25877
O          2.02547        2.95915        0.11855
H          0.05488        1.46605       -0.11627
H          0.89303       -0.00002        0.22759
H          3.32404        0.08131       -0.17034
H          4.07660        1.56836        0.26703
