5
CARBON_TETRACHLORIDE.gamout	Energy:   -1878.4760818
C          0.00019       -0.00020       -0.00042
Cl         1.03707        1.03741        1.03794
Cl        -1.03741       -1.03707        1.03793
Cl        -1.03775        1.03775       -1.03755
Cl         1.03802       -1.03802       -1.03817
