8
CF3SO3-1.gamout	Energy:    -961.0844172
C          1.02250       -0.05742        0.03729
F          0.58755       -0.60917        1.20262
F          0.59352        1.23394        0.02049
F          2.38217       -0.02646        0.09219
S          0.39226       -1.03525       -1.48692
O         -1.09944       -0.93013       -1.33152
O          0.97876       -2.39887       -1.24956
O          0.98668       -0.25885       -2.62870
