6
CHLOROTRIFLUOROETHYLENE.gamout	Energy:    -835.5315304
C          8.99910       18.00454       -0.00000
C         10.34585       18.02380       -0.00000
Cl        11.28784       19.46439        0.00000
F         11.04001       16.87789       -0.00000
F          8.28986       16.88275        0.00000
F          8.24142       19.09123       -0.00000
