10
CHLORAL_HYDRATE.gamout	Energy:   -1608.6205425
Cl        -0.81547       -1.34143        0.50610
Cl        -0.41333        0.55060       -1.71902
Cl        -1.58364        1.48287        0.81187
O          1.37803        1.96345        0.33976
O          2.00358       -0.19948        0.11005
C          1.02920        0.65567        0.64884
C         -0.39612        0.37344        0.05430
H          0.92576        0.49861        1.75276
H          2.35158        2.00802        0.30088
H          1.80798       -1.11723        0.38112
