5
CHLOROMETHANE.gamout	Energy:    -499.9861406
H         -0.00571        1.19505        1.63434
C          0.64649        0.98729        0.76816
H          0.51028        1.75605       -0.01238
H          0.44091       -0.01815        0.36117
Cl         2.36299        1.03701        1.32336
