12
CHLOROBENZENE.gamout	Energy:    -691.5948893
C         -0.24429        1.22186        0.00000
C         -0.93513        0.00012        0.00000
C          1.16076        1.21361       -0.00000
C          1.86687       -0.00014       -0.00000
C          1.16077       -1.21375       -0.00000
C         -0.24413       -1.22155        0.00000
Cl        -2.69972       -0.00006       -0.00000
H         -0.80148        2.16753        0.00000
H          1.70569        2.16895        0.00000
H          2.96658       -0.00012        0.00000
H          1.70560       -2.16906       -0.00000
H         -0.80131       -2.16704        0.00000
