27
CIS,TRANS-1,2,3-TRIMETHYLCYCLOHEXANE.gamout	Energy:    -353.5585260
C          1.79048        1.49464        2.61951
C          2.51985        2.16425        1.44189
C          1.99382        3.59813        1.11825
C          4.06298        2.15839        1.69076
C          0.46346        3.72104        1.17477
C          2.70095        4.64176        1.99959
C          4.71393        0.85324        1.20768
C          4.74297        3.39225        1.07566
C          4.22211        4.70560        1.69872
H          2.26154        0.52394        2.87039
H          0.72451        1.29178        2.40045
H          1.83460        2.12591        3.53087
H          2.32449        1.54879        0.53584
H          2.29069        3.80877        0.06825
H          4.21802        2.22241        2.79299
H          0.12819        4.69107        0.75590
H          0.08284        3.66247        2.21428
H         -0.02757        2.91690        0.59096
H          2.52624        4.39479        3.06908
H          2.23850        5.63698        1.84783
H          5.78629        0.81129        1.48371
H          4.64662        0.76906        0.10316
H          4.21982       -0.03743        1.64296
H          4.58083        3.39071       -0.02428
H          5.83992        3.32108        1.21217
H          4.78367        4.91625        2.63185
H          4.43974        5.55238        1.01615
