26
CIS-STILBENE.gamout	Energy:    -540.3262945
C          4.43200        1.19059        4.54853
C          5.67063        1.69031        4.25559
C          6.20916        2.38835        3.07304
C          3.20326        1.03635        3.74740
C          7.60525        2.34503        2.82487
C          5.41258        3.17170        2.20433
C          1.95618        0.96361        4.41935
C          3.19792        0.87884        2.34059
C          8.17526        3.02171        1.73698
C          5.97714        3.84176        1.11337
C          0.75615        0.77929        3.71892
C          2.00012        0.70356        1.63764
C          7.35758        3.76301        0.87056
C          0.77396        0.66033        2.32068
H          4.32303        0.80877        5.57906
H          6.41681        1.57218        5.06163
H          8.24918        1.76162        3.49837
H          4.33614        3.26229        2.39484
H          1.93582        1.06230        5.51414
H          4.14905        0.88356        1.79418
H          9.26087        2.97240        1.56354
H          5.32716        4.42844        0.44945
H         -0.19769        0.72579        4.26474
H          2.03222        0.59880        0.54414
H          7.79275        4.28361        0.01099
H         -0.16047        0.52695        1.76364
