21
CIS-1,2-DIMETHYLCYCLOPENTANE.gamout	Energy:    -274.9875188
C          2.23470        2.93519        3.81925
C          2.32148        1.54058        3.17964
C          2.06511        1.53377        1.64769
C          3.74509        0.94633        3.26512
C          0.84488        2.31354        1.15224
C          3.41249        2.00446        1.04712
C          4.51152        1.53834        2.04770
H          2.93001        3.65547        3.34232
H          1.21400        3.35709        3.74665
H          2.49751        2.88588        4.89422
H          1.59083        0.87884        3.68964
H          1.92621        0.46638        1.36399
H          4.24066        1.16291        4.23133
H          3.68796       -0.15762        3.17316
H          0.72038        2.20062        0.05716
H         -0.08921        1.95704        1.63095
H          0.94301        3.39761        1.36285
H          3.56460        1.60422        0.02601
H          3.41397        3.11029        0.95140
H          5.14776        2.39122        2.35553
H          5.19331        0.78928        1.60056
