24
CIS-1-METHYL-3-ETHYLCYCLOPENTANE.gamout	Energy:    -314.2747885
C          6.86593        1.24419        1.44908
C          5.62055        1.02289        2.31739
C          4.49785        2.04527        2.09233
C          3.24727        1.81765        2.96129
C          3.91683        2.06792        0.65588
C          2.15137        2.68378        2.30964
C          2.46455        2.60738        0.78532
C          0.72342        2.27404        2.67356
H          7.64313        0.48355        1.65988
H          7.31332        2.24148        1.63753
H          6.62630        1.18362        0.36903
H          5.91534        1.04099        3.38841
H          5.20820        0.00624        2.13113
H          4.89574        3.06030        2.32578
H          3.41012        2.06989        4.02741
H          2.95729        0.74350        2.91728
H          3.90746        1.03161        0.25621
H          4.53382        2.66680       -0.04092
H          2.30655        3.73320        2.64637
H          1.74456        1.92903        0.28283
H          2.34295        3.59625        0.30158
H          0.54486        2.34591        3.76463
H         -0.02512        2.91652        2.16918
H          0.53018        1.22487        2.36737
