12
CIS-CROTONIC_ACID.gamout	Energy:    -306.2737350
O         -2.35078        0.39094       -0.74420
C         -1.32256        0.48626       -0.10416
C         -0.44362       -0.68521        0.19898
O         -0.93834        1.70461        0.39461
C          0.90594       -0.75008        0.10636
C          1.87088        0.32912       -0.29379
H         -1.00760       -1.60514        0.41438
H         -0.15234        1.58641        0.96248
H          1.35948       -1.73553        0.30754
H          1.37726        1.25919       -0.63069
H          2.56470        0.57230        0.54006
H          2.51210       -0.03229       -1.12348
