22
CIS-2-PHENYL-2-BUTENE.gamout	Energy:    -388.0069752
C          5.30777        2.82093        3.58480
C          4.22783        3.45347        3.04767
C          4.15173        4.95559        2.88133
C          3.05514        2.65815        2.57158
C          6.57007        3.42146        4.13820
C          2.27676        3.06608        1.46045
C          2.67196        1.46559        3.23000
C          1.18780        2.30082        1.01109
C          1.58852        0.70042        2.78397
C          0.84146        1.11133        1.66854
H          5.27833        1.71855        3.60611
H          4.95047        5.47731        3.43750
H          4.24997        5.24714        1.81402
H          3.17553        5.34831        3.23107
H          7.45186        3.10254        3.54159
H          6.56455        4.52707        4.15956
H          6.75189        3.06163        5.17395
H          2.53562        3.98940        0.92560
H          3.22279        1.15042        4.12644
H          0.60353        2.63262        0.13860
H          1.31581       -0.21803        3.32250
H         -0.01140        0.51247        1.32405
