22
CIS-3-METHYLCYCLOHEXANOL.gamout	Energy:    -350.1645247
C          2.40423        2.67481        0.02279
C          0.86994        2.57496        0.00646
C          3.04274        1.27709        0.04859
C          0.31523        1.75114        1.18425
C          1.02291        0.38629        1.29151
C          3.20424        0.91969        2.57790
C          2.56893        0.44216        1.25883
O          0.32957        2.49030        2.42008
H          2.75324        3.23958       -0.86394
H          2.74029        3.26851        0.90043
H          0.40161        3.57781        0.02114
H          0.55339        2.07905       -0.93618
H          4.14998        1.34795        0.04489
H          2.76159        0.74499       -0.88557
H         -0.76477        1.57203        1.01026
H          0.67290       -0.12533        2.20956
H          0.68107       -0.23108        0.43381
H          2.77324        0.38627        3.44550
H          4.29623        0.74040        2.56695
H          3.07149        2.00697        2.75826
H          2.91999       -0.60051        1.10515
H          1.25397        2.66565        2.67051
