22
CIS-2-METHYLCYCLOHEXANOL.gamout	Energy:    -350.1685541
C          0.02184        1.29207       -0.08219
C         -0.05279       -0.23763        0.02670
C          0.69917       -0.74459        1.26730
C          2.16075       -0.25517        1.29915
C          2.23500        1.28726        1.19413
C          1.47636        1.78869       -0.04699
O          1.79401        1.94539        2.39508
C          2.92925       -0.78827        2.51156
H         -0.47012        1.63972       -1.01210
H         -0.55950        1.75404        0.74763
H         -1.10800       -0.57716        0.04466
H          0.40534       -0.68901       -0.88066
H          0.68585       -1.85223        1.30233
H          0.17139       -0.41495        2.19161
H          2.65269       -0.64040        0.37666
H          3.29998        1.58273        1.11236
H          1.51904        2.89479       -0.07852
H          2.00975        1.41906       -0.94931
H          0.84566        1.76089        2.52280
H          3.99394       -0.48740        2.46899
H          2.88601       -1.89367        2.55244
H          2.50708       -0.38866        3.45385
