15
CIS-1,2-DIMETHYLCYCLOPROPANE.gamout	Energy:    -196.3873344
C          3.03742        2.04425        2.50787
C          3.94195        0.86652        2.19991
C          1.63096        2.17502        1.94317
C          1.83403        1.89096        3.42086
C          1.01445        1.13892        1.02326
H          3.57905        2.99955        2.60662
H          3.37946       -0.08459        2.13834
H          4.70729        0.74551        2.99297
H          4.47395        1.00606        1.23687
H          1.33101        3.20870        1.70479
H          1.61294        2.67887        4.15427
H          1.59873        0.87357        3.77048
H         -0.09238        1.19264        1.05848
H          1.30204        0.10823        1.30563
H          1.32538        1.29853       -0.02958
