1
CL-1.gamout	Energy:    -460.1817066
Cl        -7.66140        3.94500       -0.00000
