11
CROTONALDEHYDE.gamout	Energy:    -231.0774926
C          1.91546        1.12868        1.41709
C          2.34990        1.29912        2.69016
C          3.57818        0.64492        3.16796
C          0.68748        1.73341        0.81750
O          4.03119        0.75093        4.30188
H          2.52118        0.48013        0.75590
H          1.80280        1.92861        3.41161
H          4.10274        0.00926        2.39263
H          0.14759        2.37743        1.53650
H         -0.00538        0.93982        0.46441
H          0.94364        2.33807       -0.07826
