16
CYCLOPENTANOL.gamout	Energy:    -271.5886319
O         -0.01078        2.17353        2.77421
C          1.38258        1.93104        2.59755
C          2.26640        3.18928        2.50141
C          3.61798        2.66201        1.97361
C          3.28100        1.36309        1.16567
C          1.75649        1.15264        1.32047
H         -0.32942        2.68958        2.01103
H          1.67747        1.34173        3.49201
H          1.80460        3.88441        1.76527
H          2.34440        3.73185        3.46146
H          4.14330        3.41434        1.35634
H          4.29236        2.42230        2.81922
H          3.57434        1.44971        0.10287
H          3.83841        0.49817        1.57544
H          1.21141        1.61009        0.46542
H          1.45865        0.08941        1.36639
