12
CYCLOBUTANE.gamout	Energy:    -157.1006751
C          1.82623        2.83669        1.05487
C          0.68205        1.79892        0.85559
C          1.72661        0.66482        1.07590
C          2.85261        1.69865        0.77783
H          1.88032        3.18793        2.10444
H          1.84282        3.72096        0.38874
H          0.30111        1.80651       -0.18502
H         -0.18307        1.84490        1.54502
H          1.66264       -0.23014        0.42726
H          1.74876        0.33063        2.13219
H          3.15696        1.67410       -0.28740
H          3.76550        1.66344        1.40321
