20
CYCLOHEXYL_ISOCYANATE.gamout	Energy:    -403.0921126
C         -2.65832        0.36146        2.89131
N         -2.67425        1.02297        1.87361
C         -3.52152        1.36973        0.74899
O         -2.51409       -0.23974        3.90718
C         -4.78622        2.12893        1.19541
C         -3.88973        0.13169       -0.09144
C         -5.65202        2.51515       -0.01420
C         -4.75695        0.52105       -1.29848
C         -6.01478        1.29053       -0.86701
H         -2.91816        2.05249        0.11184
H         -5.36426        1.47468        1.88368
H         -4.49193        3.02477        1.77574
H         -2.96306       -0.38026       -0.41595
H         -4.44299       -0.58054        0.55843
H         -6.56841        3.03369        0.33069
H         -5.09783        3.24769       -0.64109
H         -5.03410       -0.38637       -1.87060
H         -4.15957        1.15347       -1.99143
H         -6.67851        0.61537       -0.28315
H         -6.59407        1.60244       -1.75685
