21
CYCLOHEPTANE.gamout	Energy:    -274.9861083
C          2.05449        0.98914        1.83840
C          0.96514        1.98951        1.40396
C          0.96883        3.35764        2.11763
C          3.39390        1.18524        1.10451
C          2.35038        3.96761        2.43449
C          4.19259        2.44345        1.47632
C          3.44360        3.78349        1.36432
H          1.69535       -0.03850        1.62509
H          2.20817        1.03390        2.93886
H         -0.03544        1.53208        1.54356
H          1.06657        2.14537        0.30831
H          0.40849        3.27284        3.07223
H          0.38734        4.07044        1.49567
H          3.18621        1.19609        0.01123
H          4.03977        0.30022        1.28181
H          2.73109        3.53695        3.38551
H          2.20984        5.04832        2.63750
H          5.09897        2.48098        0.83740
H          4.55928        2.34397        2.52238
H          4.18725        4.59813        1.47834
H          3.01637        3.90299        0.34447
