25
CYCLOOCTANOL.gamout	Energy:    -389.4392929
C         -1.44272       -0.01714       -0.17890
C         -0.83633       -1.42832       -0.25851
C         -1.20707        0.78762        1.10824
C          0.70211       -1.54359       -0.19924
C          1.48252       -0.56233       -1.09477
C          2.06486        0.66463       -0.36728
O          2.56594       -1.32796       -1.66563
C          1.09981        1.69091        0.25759
C          0.25125        1.17230        1.44293
H         -2.53870       -0.10802       -0.32740
H         -1.08685        0.57781       -1.04734
H         -1.27229       -2.06667        0.54055
H         -1.17340       -1.87679       -1.21719
H         -1.63965        0.24010        1.97377
H         -1.80001        1.72308        1.02232
H          1.07134       -1.46632        0.84242
H          0.98300       -2.55965       -0.53954
H          0.81555       -0.21573       -1.92112
H          2.74704        0.28003        0.42219
H          2.71094        1.20523       -1.09541
H          3.14483       -0.72037       -2.15927
H          0.44142        2.12346       -0.52598
H          1.72483        2.53589        0.60924
H          0.77404        0.31571        1.91349
H          0.21315        1.95435        2.22801
