28
CYCLOHEXYLBENZENE.gamout	Energy:    -466.6029716
C          3.23331        1.73251        4.48679
C          3.83059        3.11575        4.82979
C          2.42989        1.19593        5.69462
C          2.43034        1.74889        3.20037
C          4.70701        3.05018        6.08579
C          3.30224        1.12443        6.95429
C          2.78315        0.91740        2.12099
C          1.31836        2.60006        3.04284
C          3.94000        2.48077        7.28903
C          2.05438        0.93202        0.92215
C          0.58952        2.62438        1.84616
C          0.95324        1.78856        0.77747
H          4.09005        1.03753        4.33150
H          3.00117        3.83789        4.99094
H          4.41434        3.49856        3.96977
H          2.01586        0.19660        5.45557
H          1.55940        1.86313        5.87846
H          5.10551        4.05634        6.32620
H          5.58679        2.40457        5.87317
H          4.10793        0.37586        6.78444
H          2.70917        0.75203        7.81340
H          3.64778        0.24744        2.22990
H          1.02021        3.26144        3.86802
H          3.14808        3.19883        7.59637
H          4.61969        2.37659        8.15698
H          2.34852        0.27115        0.09392
H         -0.26790        3.30460        1.74428
H          0.38245        1.80622       -0.15965
