11
CYCLOBUTANONE.gamout	Energy:    -231.0745629
O          0.01240        1.70629        0.65829
C          1.21435        1.74129        0.80367
C          2.23781        2.88577        0.94541
C          3.37074        1.80700        0.96746
C          2.30994        0.65971        0.89173
H          2.24285        3.59847        0.09630
H          2.11137        3.46805        1.88117
H          4.04318        1.85059        0.09130
H          3.98789        1.80484        1.88427
H          2.35933       -0.00981        0.00946
H          2.22320        0.02607        1.79814
