11
CYRENE.gamout	Energy:    -455.0138915
O         27.55359       -7.50608       -0.13103
O         24.36872       -6.64343       -2.24352
O         28.75380       -9.46533       -2.92919
C         28.11736       -6.27085       -0.24314
C         28.94654       -6.17458       -1.33875
C         27.76895       -8.50440       -0.97678
C         24.36460       -5.60725       -1.76211
C         29.15246       -7.13414       -2.14895
C         28.62802       -8.49828       -2.18658
H         27.80387       -5.57701        0.54041
H         27.21223       -9.41448       -0.71458
