24
DGLUCOSE.gamout	Energy:    -686.7476484
O          1.05443        0.25265       -0.10585
O          2.28715       -2.35112       -0.05608
O          4.68029       -2.52388       -1.63191
O          6.37076       -0.22889       -1.44609
O          3.05449        1.18439       -0.77375
O          4.57665        3.55830       -0.71509
C          2.44632        0.10388       -0.07085
C          2.78499       -1.22234       -0.76948
C          4.30332       -1.38495       -0.85719
C          4.95043       -0.15759       -1.50471
C          4.49416        1.11574       -0.76840
C          4.98522        2.39828       -1.42912
H          0.79039        0.99678        0.46403
H          1.31467       -2.29486       -0.03283
H          4.25546       -3.30885       -1.23906
H          6.62896       -1.12090       -1.74595
H          3.60723        3.50640       -0.62118
H          2.82616        0.08910        0.98239
H          2.35892       -1.17750       -1.79757
H          4.70562       -1.48306        0.17992
H          4.60561       -0.09625       -2.56458
H          4.86158        1.08258        0.28484
H          6.08986        2.39398       -1.44628
H          4.62272        2.42356       -2.48355
