21
DI-N-PROPYL_ETHER.gamout	Energy:    -312.0656679
C          1.70955        2.54929        4.42954
O          1.55681        1.50897        3.46607
C          0.91642        1.90854        2.25661
C          2.95982        3.40777        4.19451
C          1.32011        0.95623        1.13533
C          4.26930        2.62130        4.31900
C          2.81002        1.04333        0.78615
H          0.79861        3.19174        4.45228
H          1.77972        2.04455        5.41567
H         -0.19057        1.90179        2.39809
H          1.20750        2.95051        1.98428
H          2.89699        3.88658        3.19400
H          2.93967        4.24167        4.92677
H          1.05473       -0.07876        1.43722
H          0.70058        1.19118        0.24408
H          5.14899        3.27082        4.14602
H          4.30368        1.79509        3.58431
H          4.37029        2.17261        5.32804
H          3.08544        0.31876       -0.00276
H          3.07491        2.05692        0.42176
H          3.43324        0.82755        1.67384
