5
DIBROMOMETHANE.gamout	Energy:   -5187.5178169
Br         1.86692       -0.19989       -0.00000
Br        -0.81074        1.69350       -0.00000
C         -0.08286       -0.11691        0.00001
H         -0.43774       -0.61816        0.91438
H         -0.43770       -0.61810       -0.91441
