6
DICHLOROACETONITRILE.gamout	Energy:   -1051.6467741
Cl         1.27181       -1.49719       -0.20366
Cl         1.26960        1.49671       -0.20386
N         -2.08205        0.00340       -0.14799
C          0.48490       -0.00028        0.42416
C         -0.93618       -0.00195        0.08978
H          0.62690       -0.00077        1.52076
