21
DIISOPROPYL_ETHER.gamout	Energy:    -312.0742797
O          2.90094        2.24658        1.79166
C          1.75915        1.46553        2.17048
C          3.97179        1.58050        1.10797
C          0.78240        2.44430        2.81768
C          2.11112        0.30661        3.11194
C          5.08828        2.61287        0.98073
C          3.54681        1.02315       -0.25687
H          1.28215        1.04595        1.25289
H          4.33868        0.73678        1.73812
H          1.21827        2.86502        3.74522
H         -0.16269        1.93042        3.07558
H          0.55334        3.27829        2.12905
H          1.18521       -0.20567        3.43831
H          2.63607        0.68395        4.01224
H          2.75004       -0.45452        2.62569
H          4.75410        3.46552        0.35719
H          5.98200        2.16239        0.50930
H          5.37202        3.00014        1.97651
H          3.11797        1.82932       -0.88508
H          2.79822        0.21321       -0.16703
H          4.42525        0.60117       -0.78301
