19
EMIM+1.gamout	Energy:    -344.3118663
C         -0.21165       -0.32944        0.14137
C          1.31714       -0.34557        0.11647
N          1.89198        1.01826        0.12988
H          1.70381       -0.85172       -0.78743
H          1.73657       -0.87517        0.99189
C          2.20898        1.74881       -0.95727
C          2.59261        3.00564        0.83260
C          2.12104        1.78492        1.25971
C          3.07921        4.05892       -1.41947
H          1.94215        1.40242        2.26752
N          2.63986        2.96033       -0.55128
H          2.13540        1.41291       -1.99572
H          2.90189        3.89015        1.39468
H          3.13711        3.70103       -2.46088
H          4.07742        4.40446       -1.09562
H          2.35730        4.89397       -1.35631
H         -0.61841        0.22403       -0.72666
H         -0.60203        0.12980        1.06977
H         -0.58386       -1.36915        0.09437
