9
ETHANOL.gamout	Energy:    -154.9371688
C          1.12865        0.90145        0.96933
C          1.81743        2.13817        1.52729
O          3.20971        1.83985        1.68762
H          0.04617        1.09053        0.83181
H          1.25141        0.04502        1.66025
H          1.56361        0.62262       -0.01020
H          1.67746        2.99904        0.83271
H          1.36265        2.42154        2.50520
H          3.66402        2.62205        2.04393
