18
ETHYL_PROPYL_ETHER.gamout	Energy:    -272.7841155
O          3.09654        1.74812        1.06101
C          4.43524        1.27913        1.10905
C          5.36991        2.47548        1.26273
C          2.13153        0.71422        0.92447
C          6.85098        2.08087        1.32777
C          0.74911        1.34658        0.88270
H          4.67915        0.71066        0.17698
H          4.56600        0.57211        1.96604
H          5.07736        3.02628        2.18008
H          5.19338        3.16724        0.41349
H          2.21393        0.00022        1.78089
H          2.32876        0.12825       -0.00669
H          7.49111        2.97677        1.43871
H          7.17414        1.55139        0.40856
H          7.05889        1.41396        2.18935
H         -0.03086        0.56744        0.78020
H          0.66688        2.04080        0.02484
H          0.55802        1.91479        1.81300
