12
FLUOROBENZENE.gamout	Energy:    -331.2568923
C          6.33122        1.87469       -0.67463
C          6.84051        0.61640       -0.33855
C          4.93753        2.04026       -0.72094
C          4.08272        0.96344       -0.43541
C          4.62226       -0.28892       -0.10090
C          6.01317       -0.47334       -0.04943
F          8.18857        0.44511       -0.29104
H          7.02118        2.70038       -0.89360
H          4.51817        3.02213       -0.98322
H          2.99404        1.10043       -0.47365
H          3.95593       -1.13412        0.12319
H          6.45998       -1.44235        0.20940
