12
HEXAFLUOROBENZENE.gamout	Energy:    -827.0608381
F          7.15230        2.89235       -0.94467
C          6.33747        1.86593       -0.67238
F          4.43043        3.23599       -1.04033
C          4.94387        2.04157       -0.72123
F          2.76160        1.12995       -0.48176
C          4.08906        0.96299       -0.43509
F          3.81355       -1.31856        0.17231
C          4.62745       -0.29126       -0.10013
F          6.53438       -1.66140        0.26776
C          6.02089       -0.46693       -0.05127
F          8.20294        0.44394       -0.29053
C          6.87543        0.61161       -0.33739
