3
HYDROGEN_SULFIDE.gamout	Energy:    -399.3151642
S          0.15711        0.50416        0.00000
H         -0.92204       -0.32715        0.00000
H          1.02571       -0.54520        0.00000
