5
METHANE.gamout	Energy:     -40.4845741
C          1.05820        0.93531        0.81030
H          1.42062        1.57707       -0.01387
H          1.20903        1.45399        1.77503
H         -0.01812        0.72579        0.66863
H          1.62156       -0.01618        0.81140
