15
N-BUTANOL.gamout	Energy:    -233.5071409
C          1.24022        4.19630        0.89797
C          0.28518        4.54557       -0.25489
C         -0.25507        5.97736       -0.17080
C          1.78308        2.76329        0.82839
O         -1.10163        6.33774       -1.26569
H          2.08707        4.91570        0.89818
H          0.71355        4.34438        1.86580
H         -0.56891        3.83121       -0.25058
H          0.79880        4.41492       -1.23115
H         -0.77988        6.12928        0.80242
H          0.58344        6.70221       -0.20152
H          0.96167        2.01911        0.86341
H          2.46545        2.54886        1.67393
H          2.34889        2.59137       -0.10996
H         -1.87181        5.74193       -1.27190
