15
N-BUTANOL.gamout	Energy:    -233.5070737
C          1.27745        4.19572        0.92593
C          0.26840        4.60053       -0.15932
C         -0.22485        6.03664       -0.00718
C          1.78114        2.75386        0.78222
O         -1.15603        6.31481       -1.05928
H          2.14234        4.89378        0.90186
H          0.81081        4.32570        1.92682
H         -0.60918        3.92011       -0.13557
H          0.72484        4.48947       -1.16602
H         -0.70646        6.16627        0.99124
H          0.64139        6.73866       -0.05036
H          0.94549        2.02714        0.84029
H          2.50383        2.49931        1.58146
H          2.28887        2.59980       -0.19181
H         -1.47477        7.22820       -0.96680
