32
N-DECANE.gamout	Energy:    -394.0502477
C          5.26248        1.28070        1.06912
C          6.31567        1.89677        2.00166
C          7.71380        1.27986        1.85022
C          3.86964        1.91241        1.20992
C          8.76251        1.86499        2.80796
C          2.79780        1.27584        0.31246
C         10.16609        1.26505        2.63550
C          1.41368        1.93079        0.43941
C         11.20299        1.83813        3.60906
C          0.34272        1.28026       -0.44447
H          5.19288        0.18861        1.27124
H          5.60844        1.37040        0.01531
H          5.97596        1.78621        3.05551
H          6.37160        2.99285        1.81707
H          8.06184        1.40964        0.80137
H          7.64624        0.18066        2.01024
H          3.93542        3.00042        0.98613
H          3.54520        1.84342        2.27204
H          8.42386        1.71277        3.85705
H          8.81520        2.96760        2.66604
H          3.13124        1.32216       -0.74818
H          2.71387        0.19291        0.55449
H         10.50576        1.43065        1.58978
H         10.10819        0.16164        2.76102
H          1.09233        1.89417        1.50323
H          1.49860        3.01054        0.18819
H         12.20405        1.39102        3.44966
H         11.30439        2.93639        3.48923
H         10.91519        1.64599        4.66302
H          0.20094        0.21146       -0.18375
H         -0.63803        1.78420       -0.33657
H          0.62460        1.32409       -1.51657
