23
N-HEPTANE.gamout	Energy:    -276.1947440
C          4.93903        1.11744        1.61717
C          3.69005        1.87077        1.13724
C          2.36801        1.20509        1.54526
C          6.26036        1.78721        1.21060
C          1.11949        1.95543        1.05663
C          7.50629        1.02917        1.68463
C         -0.19851        1.28891        1.47000
H          4.91698        0.07867        1.21864
H          4.90425        1.01642        2.72483
H          3.71493        2.91080        1.53198
H          3.72376        1.96771        0.02929
H          2.34600        0.16349        1.15410
H          2.32971        1.11205        2.65347
H          6.28008        2.82394        1.61163
H          6.28722        1.89184        0.10408
H          1.14848        2.99726        1.44365
H          1.16075        2.04393       -0.05084
H          7.52498        0.93981        2.79010
H          8.43776        1.54171        1.37406
H          7.53314        0.00154        1.26803
H         -0.28339        1.22111        2.57372
H         -0.26812        0.25767        1.06784
H         -1.07547        1.85453        1.09891
