29
N-NONANE.gamout	Energy:    -354.7652659
C          6.83550        0.88534        1.57971
C          5.82266        1.93416        2.06291
C          4.44777        1.82968        1.38559
C          8.20282        0.97715        2.27412
C          3.44104        2.88870        1.85912
C          9.22567       -0.05690        1.77972
C          2.05281        2.76635        1.21322
C         10.58327        0.03913        2.48689
C          1.05994        3.83532        1.68531
H          6.97662        0.99062        0.48117
H          6.40888       -0.13084        1.73276
H          6.23834        2.95212        1.89028
H          5.70024        1.84419        3.16533
H          4.02383        0.81640        1.56322
H          4.57898        1.91161        0.28368
H          8.06702        0.86349        3.37267
H          8.61770        1.99943        2.12753
H          3.85236        3.90246        1.65441
H          3.33965        2.82560        2.96560
H          9.36737        0.06851        0.68422
H          8.80462       -1.07724        1.91355
H          1.63911        1.75594        1.42385
H          2.16151        2.82009        0.10787
H         11.03870        1.04026        2.34293
H         11.29918       -0.71313        2.10123
H         10.48017       -0.12371        3.57923
H          0.06665        3.70953        1.21119
H          1.42024        4.85583        1.44116
H          0.91512        3.79059        2.78425
