37
OMIM+1.gamout	Energy:    -580.0263112
C         -0.76844       -0.22019        0.54357
C          0.14754        0.59968       -0.37330
N          1.27204        1.22168        0.36175
H         -0.40725        1.41817       -0.87046
H          0.58907       -0.03153       -1.16737
C          2.51474        0.71498        0.47315
C          2.43580        2.56829        1.69170
C          1.19814        2.37782        1.11908
C          4.65507        1.34434        1.62273
H          0.28283        2.96972        1.18932
N          3.23981        1.52004        1.27720
H          2.87830       -0.19548       -0.01066
H          2.80706        3.35778        2.34896
H          4.97332        0.32596        1.34595
H          4.78333        1.48239        2.71100
H          5.26854        2.08557        1.07840
C         -1.91790       -0.88073       -0.23469
C         -2.86158       -1.67978        0.67720
C         -4.00447       -2.36976       -0.08546
C         -4.91565       -3.22972        0.80457
C         -6.03209       -3.94395        0.02630
C         -6.92564       -4.82491        0.90721
H         -1.18657        0.44069        1.33226
H         -0.16098       -0.99140        1.06383
H         -1.51032       -1.55626       -1.01858
H         -2.49576       -0.09694       -0.77094
H         -3.27908       -1.00040        1.45204
H         -2.27345       -2.44780        1.22586
H         -3.57130       -3.01201       -0.88425
H         -4.61662       -1.60332       -0.61031
H         -4.29766       -3.98661        1.33673
H         -5.36858       -2.59380        1.59766
H         -5.57524       -4.56461       -0.77522
H         -6.65445       -3.18532       -0.49600
H         -7.71637       -5.32179        0.31223
H         -6.33851       -5.62010        1.41015
H         -7.42760       -4.23049        1.69733
