4
PHOSPHINE.gamout	Energy:    -343.0726366
P         -0.69713        0.40199        0.23238
H          0.73953        0.42246        0.33418
H         -0.65501        0.14777       -1.18491
H         -0.76557        1.82744        0.03753
