5
SILANE.gamout	Energy:    -291.8128850
Si        -0.45181        0.96960       -0.00150
H          1.04217        0.84424       -0.00262
H         -0.89088        1.72407       -1.22038
H         -0.89045        1.70722        1.22782
H         -1.06798       -0.39713       -0.01078
