3
SULFUR_DIOXIDE.gamout	Energy:    -548.4289255
S          0.91299       -0.08896        0.00000
O          2.17274        0.70554        0.00000
O         -0.38172        0.64713        0.00000
