13
TETRAHYDROFURAN.gamout	Energy:    -232.2914618
C          0.70587        2.12507        0.98615
C          1.87792        3.00503        1.45740
C          3.09209        2.21565        0.94374
O          2.70330        0.83031        0.94252
C          1.28532        0.71258        1.15463
H         -0.22113        2.28116        1.56997
H          0.47478        2.32336       -0.08025
H          1.83859        4.03630        1.05838
H          1.89583        3.06805        2.56448
H          3.36389        2.52144       -0.09279
H          3.99113        2.33026        1.58239
H          0.87955       -0.01729        0.42536
H          1.09852        0.31661        2.17971
