9
THIOPHENE.gamout	Energy:    -552.8244611
C          2.99083        0.13755        0.89482
C          1.55969        0.12761        0.91239
C          3.53727        0.31659        2.15120
C          1.04171        0.29936        2.18174
S          2.30304        0.47439        3.36437
H          3.59636        0.01671       -0.01284
H          0.93391       -0.00173        0.01979
H          4.59316        0.36518        2.43644
H         -0.00743        0.33330        2.49265
