3
WATER.gamout	Energy:     -76.3811678
O         -0.23062       -0.32581        0.00000
H          0.74189       -0.28268        0.00000
H         -0.51389        0.60566        0.00000
