8
1,1,2-TRIFLUOROETHANE.gamout	Energy:    -377.2385008
C         -0.35997       -1.74566       -0.03967
C          0.54341       -0.51915       -0.00527
F          1.74772       -0.86091       -0.56490
F         -0.00250        0.49523       -0.73826
H          0.71588       -0.14690        1.03190
F         -1.53029       -1.48986        0.64758
H          0.17624       -2.59994        0.43030
H         -0.58465       -1.99448       -1.10098
