8
1,1,2,2-TETRABROMOETHANE.gamout	Energy:  -10373.8166235
Br        -0.39211        1.75355        0.92928
C         -0.51244        0.56696       -0.61394
C          0.51244       -0.56696       -0.61394
Br         2.32496        0.18058       -0.81825
Br         0.39211       -1.75355        0.92929
Br        -2.32496       -0.18058       -0.81825
H         -0.35339        1.20202       -1.50530
H          0.35339       -1.20203       -1.50530
