6
1,1,2,2-TETRACHLOROETHENE.gamout	Energy:   -1916.5113287
Cl        -2.67505       -3.82142       -1.83470
C         -0.94338       -3.82351       -1.83470
Cl        -0.18138       -2.26855       -1.83470
C         -0.22153       -4.98289       -1.83470
Cl         1.51015       -4.98498       -1.83470
Cl        -0.98352       -6.53785       -1.83470
