6
1,1-DIFLUOROETHYLENE.gamout	Energy:    -276.8554463
C          0.65373        1.26503        0.05561
C          1.98436        1.13882        0.09087
F          2.64067       -0.01593        0.06257
F          2.84415        2.14930        0.15852
H          0.19992        2.26316        0.08317
H          0.02318        0.36938       -0.00090
