16
1,1-DIMETHOXYETHANE.gamout	Energy:    -308.6342232
O          1.98128        0.90509        1.94285
C          3.02745        1.60822        2.61794
O          4.17782        1.56639        1.82848
C          3.35806        0.96319        3.95911
C          0.67568        1.35010        2.23971
C          4.06481        2.27171        0.60159
H          2.68879        2.67585        2.75877
H          2.46644        0.94941        4.61748
H          4.16636        1.52194        4.47164
H          3.69454       -0.07839        3.78589
H         -0.02214        0.78786        1.58735
H          0.37950        1.16335        3.30162
H          0.54549        2.44303        2.03871
H          5.04465        2.19762        0.09078
H          3.27707        1.83679       -0.05189
H          3.82859        3.35148        0.77027
