28
1,1-DIPHENYLETHANE.gamout	Energy:    -541.5241846
C          4.30761        4.76043        1.14931
C          4.42600        3.22299        1.11470
C          3.16493        2.57604        1.69915
C          5.70178        2.67330        1.76190
C          2.96632        2.49857        3.09539
C          2.15026        2.08393        0.85086
C          6.06643        1.32778        1.52182
C          6.53624        3.44627        2.59606
C          1.78670        1.95181        3.62605
C          0.96846        1.53366        1.37796
C          7.22243        0.77438        2.09203
C          7.69577        2.89383        3.17357
C          0.78193        1.46696        2.76901
C          8.04433        1.55753        2.92394
H          4.19391        5.14083        2.18586
H          5.19846        5.24542        0.69822
H          3.41294        5.08780        0.58226
H          4.46480        2.92358        0.04301
H          3.75503        2.86090        3.77501
H          2.28966        2.13294       -0.24255
H          5.42492        0.70419        0.87694
H          6.28933        4.49917        2.80074
H          1.65260        1.89833        4.71853
H          0.19095        1.15179        0.69676
H          7.48563       -0.27552        1.88546
H          8.33121        3.51900        3.82142
H         -0.14147        1.03404        3.18554
H          8.95314        1.12601        3.37270
