10
1,1-DICHLOROACETONE.gamout	Energy:   -1111.9903947
Cl        -0.83385        1.34200       -0.09065
Cl        -1.02949       -1.58057       -0.72150
O          1.71014       -0.10875       -1.28179
C          1.33591       -0.32740       -0.14944
C         -0.18210       -0.30408        0.21848
C          2.25691       -0.64167        1.01217
H         -0.36786       -0.52150        1.28670
H          3.30801       -0.64033        0.66923
H          2.00290       -1.63413        1.44351
H          2.12334        0.10943        1.82054
