8
1,1-DIFLUOROETHANE.gamout	Energy:    -278.0913603
C          2.31090        1.61890        0.81561
C          0.97848        0.91503        0.94497
F          1.03864       -0.03153        1.93969
F         -0.00276        1.81467        1.28531
H          2.56511        2.10347        1.77916
H          2.26358        2.39085        0.02257
H          3.10471        0.89123        0.55547
H          0.65334        0.40092        0.00943
