24
1,2,3,4-TETRAMETHYLBENZENE.gamout	Energy:    -389.2167459
C          3.26003        5.32137        1.22546
C          3.22799        3.83890        0.91262
C          4.44960        3.10707        0.92206
C          2.00175        3.18498        0.61089
C          5.73647        3.83840        1.24401
C          4.45449        1.71414        0.63696
C          0.67922        3.92399        0.58435
C          2.02887        1.80510        0.32880
C          5.72901        0.89455        0.64063
C          3.22899        1.08477        0.34315
H          2.24915        5.76696        1.26021
H          3.74691        5.52436        2.20359
H          3.84384        5.88720        0.46567
H          5.73362        4.23081        2.28531
H          6.62936        3.19542        1.13882
H          5.88552        4.71989        0.58332
H         -0.14866        3.23441        0.32426
H          0.43189        4.37964        1.56789
H          0.66995        4.74721       -0.16253
H          1.08524        1.28520        0.09382
H          6.24447        0.91845        1.62526
H          5.51312       -0.16739        0.40805
H          6.46143        1.25558       -0.11384
H          3.21816        0.00488        0.12015
