24
1,2,3,5-TETRAMETHYLBENZENE.gamout	Energy:    -389.2193861
C          0.39612        3.35290        0.76303
C          1.90455        3.23354        0.80928
C          2.69105        4.41601        0.90083
C          2.55505        1.97082        0.76813
C          2.02660        5.77416        0.95388
C          4.09491        4.31969        0.94630
C          1.77391        0.67452        0.67736
C          3.96414        1.91875        0.81685
C          4.75772        3.07773        0.90229
C          6.26849        2.99566        0.91960
H         -0.10765        2.37231        0.68178
H         -0.00328        3.85405        1.67254
H          0.06265        3.96919       -0.10052
H          1.34911        5.87041        1.83033
H          1.40096        5.96469        0.05420
H          2.77624        6.58781        1.01772
H          4.68954        5.24669        1.02066
H          2.45799       -0.19724        0.65786
H          1.08735        0.53697        1.54058
H          1.14959        0.62571       -0.24095
H          4.45684        0.93164        0.78744
H          6.62015        2.01655        1.30415
H          6.69194        3.11676       -0.10245
H          6.71497        3.79107        1.55147
