48
1,2,4,5-TETRAISOPROPYLBENZENE.gamout	Energy:    -703.4680771
C         -1.24828       -0.71221        0.00001
C         -1.24836        0.71207        0.00001
C          1.24840       -0.71207       -0.00001
C          1.24832        0.71221        0.00001
C         -2.51817       -1.57044        0.00001
C         -2.51835        1.57015        0.00001
C          2.51840       -1.57014       -0.00006
C          2.51822        1.57044        0.00002
C          0.00010       -1.36799       -0.00000
C         -0.00005        1.36799        0.00001
C         -2.63150       -2.43443        1.27405
C         -2.63160       -2.43428       -1.27412
C         -2.63182        2.43407       -1.27407
C         -2.63185        2.43403        1.27411
C          2.63184       -2.43402       -1.27417
C          2.63192       -2.43406        1.27401
C          2.63161        2.43431        1.27413
C          2.63159        2.43439       -1.27404
H         -3.39368       -0.88828        0.00010
H         -3.39377        0.88788       -0.00001
H          3.39381       -0.88787       -0.00008
H          3.39372        0.88828       -0.00001
H          0.00016       -2.47119       -0.00004
H         -0.00011        2.47119        0.00005
H         -1.80921       -3.17895        1.33823
H         -3.58967       -2.99653        1.28554
H         -2.58860       -1.81207        2.19162
H         -2.58876       -1.81180       -2.19162
H         -3.58976       -2.99638       -1.28561
H         -1.80930       -3.17879       -1.33844
H         -1.80962        3.17869       -1.33828
H         -3.59006        2.99606       -1.28555
H         -2.58887        1.81167       -2.19161
H         -2.58894        1.81161        2.19163
H         -3.59007        2.99604        1.28558
H         -1.80964        3.17864        1.33837
H          2.58887       -1.81160       -2.19169
H          3.59007       -2.99601       -1.28569
H          1.80963       -3.17864       -1.33839
H          1.80972       -3.17868        1.33826
H          3.59016       -2.99606        1.28545
H          2.58901       -1.81167        2.19155
H          2.58877        1.81186        2.19165
H          3.58976        2.99642        1.28562
H          1.80930        3.17881        1.33842
H          1.80929        3.17890       -1.33827
H          3.58975        2.99650       -1.28551
H          2.58872        1.81200       -2.19159
