15
1,2,3-BENZENETRIOL.gamout	Energy:    -457.5825089
O          7.20006        2.87672       -0.94041
C          6.31015        1.87543       -0.67457
O          8.20125        0.43242       -0.28710
C          6.85140        0.61148       -0.33685
O          6.60588       -1.63841        0.26208
C          5.96922       -0.45677       -0.05367
C          4.90982        2.04372       -0.72172
C          4.04927        0.97003       -0.43720
C          4.57422       -0.28974       -0.10072
H          6.69140        3.68094       -1.15578
H          8.33879       -0.50570       -0.03767
H          5.93877       -2.32522        0.44365
H          4.49928        3.03286       -0.98593
H          2.95924        1.11643       -0.47818
H          3.90973       -1.14013        0.12462
