12
1,2,4,5-TETRAFLUOROBENZENE.gamout	Energy:    -628.7062704
C          6.33793        1.85927       -0.67053
C          6.88050        0.61102       -0.33707
C          4.94079        2.03526       -0.71962
F          7.14442        2.89588       -0.94554
C          4.08438        0.96329       -0.43535
F          4.43834        3.23743       -1.04075
C          4.62695       -0.28496       -0.10189
C          6.02409       -0.46094       -0.05280
F          3.82046       -1.32159        0.17306
F          6.52653       -1.66314        0.26827
H          7.97043        0.47365       -0.29884
H          2.99445        1.10063       -0.47365
