28
1,2-DIPHENYLETHANE.gamout	Energy:    -541.5270824
C          4.85561        2.14519        2.48618
C          6.01946        1.21434        2.04035
C          7.38092        1.87240        2.15302
C          3.49439        1.48659        2.37382
C          7.93375        2.59161        1.07014
C          8.11444        1.81577        3.35890
C          2.93972        0.77233        3.45902
C          2.76304        1.53745        1.16634
C          9.17834        3.23414        1.18752
C          9.35898        2.45640        3.48153
C          1.69551        0.12896        3.34242
C          1.51891        0.89590        1.04447
C          9.89557        3.16932        2.39486
C          0.98050        0.18791        2.13348
H          4.88275        3.06800        1.86756
H          5.03696        2.46394        3.53528
H          5.99211        0.29150        2.65888
H          5.83807        0.89570        0.99121
H          7.38038        2.64241        0.11716
H          7.70375        1.25340        4.21452
H          3.49140        0.72617        4.41322
H          3.17510        2.09594        0.30884
H          9.59312        3.78536        0.32820
H          9.91615        2.39476        4.43027
H          1.27928       -0.41828        4.20359
H          0.96342        0.95297        0.09445
H         10.87293        3.66910        2.48835
H          0.00344       -0.31256        2.04055
