14
1,2-BENZENEDIOL.gamout	Energy:    -382.4115674
O          0.28487        3.10497        0.21187
C          1.64994        3.12249        0.19272
C          2.31344        1.86513        0.10797
C          2.41655        4.29950        0.25144
O          1.52824        0.74965        0.05255
C          3.71879        1.83170        0.08565
C          3.82430        4.25478        0.22814
C          4.47743        3.01696        0.14509
H         -0.02701        4.02794        0.27118
H          1.89413        5.26990        0.31691
H          2.11496       -0.02837       -0.00299
H          4.22439        0.85243        0.01976
H          4.40091        5.19130        0.27553
H          5.57672        2.96301        0.12584
