11
1,2-DIIODOPROPANE.gamout	Energy:    -713.5149352
C          0.98668        0.05938        0.09860
C          0.57141       -1.11789       -0.75165
C          0.97039       -2.49516       -0.24899
I         -1.66897       -0.99541       -0.85457
I          3.18847        0.33394        0.07658
H          0.60990        1.02269       -0.28203
H          0.73169       -0.06344        1.16705
H          0.84396       -0.96102       -1.81246
H          0.61077       -2.66868        0.78565
H          2.07833       -2.58717       -0.25324
H          0.55933       -3.29001       -0.89969
