8
1,2-DIBROMOCHLOROTRIFLUOROETHANE.gamout	Energy:   -5983.7618033
Br        19.75240       39.81144       -0.85210
C         19.99148       38.09096        0.06626
C         21.45640       37.51832       -0.05896
F         19.69560       38.23492        1.36948
F         19.14573       37.18524       -0.45971
Br        22.75722       38.72972        0.77744
Cl        21.86410       37.21643       -1.76662
F         21.46485       36.34726        0.61722
