12
1,3,5-TRICHLOROTRIFLUOROBENZENE.gamout	Energy:   -1908.0323178
C          6.34270        1.87242       -0.67379
Cl         7.39538        3.20094       -1.02608
C          6.87526        0.61149       -0.33738
C          4.94393        2.04048       -0.72080
F          8.19584        0.44368       -0.29140
C          6.02458       -0.47495       -0.04913
F          4.43367        3.22914       -1.03871
C          4.08007        0.96387       -0.43541
Cl         6.68900       -2.01950        0.36359
C          4.62798       -0.29096       -0.10018
Cl         2.36349        1.18085       -0.49609
F          3.81734       -1.31248        0.17111
