11
1,3-DIBROMOPROPANE.gamout	Energy:   -5266.0797279
Br        -2.90255        0.17221        0.00000
C         -1.25625       -0.91549       -0.00000
C         -0.00000       -0.04269       -0.00001
C          1.25625       -0.91549       -0.00000
Br         2.90255        0.17221        0.00000
H         -1.32221       -1.55719        0.90026
H         -1.32221       -1.55720       -0.90025
H          0.00001        0.61763       -0.89208
H          0.00001        0.61764        0.89207
H          1.32222       -1.55720        0.90025
H          1.32222       -1.55721       -0.90025
