22
1,3-DIMETHYL-2-ETHENYLBENZENE.gamout	Energy:    -387.9835028
C          0.96617        4.95977        1.31218
C          1.46451        3.79028        1.77048
C          2.86399        3.30450        1.70828
C          3.98775        4.13990        1.99230
C          3.07244        1.92716        1.38126
C          3.85051        5.59538        2.38915
C          5.28384        3.58393        1.92730
C          1.90514        1.01141        1.07837
C          4.38348        1.41943        1.31711
C          5.48839        2.24047        1.58702
H          1.58916        5.71200        0.80397
H         -0.10638        5.19184        1.41311
H          0.74382        3.08156        2.21983
H          3.77875        6.26286        1.50262
H          2.94346        5.77690        3.00025
H          4.73629        5.92590        2.96840
H          6.14927        4.22715        2.15737
H          1.25534        0.85456        1.96804
H          1.25404        1.42124        0.27772
H          2.26051        0.01404        0.75171
H          4.53546        0.36054        1.05067
H          6.50966        1.82996        1.54016
