12
1,4-DICHLORO-TRANS-2-BUTENE.gamout	Energy:   -1076.0934481
C          0.55804        0.17425        0.33775
C         -0.55794       -0.17414       -0.33776
C         -1.88131        0.49427       -0.16382
C          1.88140       -0.49416        0.16381
Cl        -3.12958       -0.68062        0.48208
Cl         3.12969        0.68071       -0.48207
H          0.51860        0.99938        1.07264
H         -0.51850       -0.99927       -1.07265
H         -1.83487        1.34011        0.54913
H         -2.29079        0.85489       -1.12878
H          2.29088       -0.85481        1.12876
H          1.83495       -1.33999       -0.54915
