19
1,5-DIMETHYLCYCLOPENTENE.gamout	Energy:    -273.7497320
C          0.53949        2.19695        2.98172
C          1.95225        2.65986        2.57176
C          2.83158        1.53046        2.03644
C          2.78204        3.25219        3.75800
C          2.42537        0.71420        0.84281
C          3.97064        1.40340        2.75478
C          4.08461        2.40537        3.87754
H         -0.04889        3.04180        3.39791
H          0.59159        1.40295        3.75740
H         -0.03134        1.79191        2.11979
H          1.82794        3.42483        1.76783
H          2.19247        3.21902        4.69840
H          3.01629        4.32211        3.58215
H          3.20308       -0.02384        0.56099
H          2.23243        1.36481       -0.03986
H          1.48024        0.15702        1.02731
H          4.75044        0.65188        2.54469
H          4.17600        1.90504        4.86924
H          5.00254        3.02906        3.77700
