24
1,7-DIMETHYLNAPHTHALENE.gamout	Energy:    -464.1829202
C          5.61565        3.91535        0.93360
C          5.67925        5.42505        0.93415
C          4.34580        3.23169        0.90534
C          6.78604        3.15667        0.96017
C          4.32103        1.78562        0.90580
C          3.09886        3.93035        0.87617
C          6.76076        1.73503        0.96046
C          3.05569        1.12295        0.87762
C          5.54977        1.05972        0.93386
C          1.87181        3.26896        0.84832
C          1.86925        1.83882        0.84984
C          0.56237        4.02417        0.81611
H          6.72845        5.78086        0.95692
H          5.19776        5.85897        0.03095
H          5.15918        5.86085        1.81486
H          7.75905        3.67514        0.98176
H          3.10266        5.03163        0.87484
H          7.70951        1.17557        0.98204
H          3.03863        0.02048        0.87805
H          5.51886       -0.04213        0.93386
H          0.90562        1.30307        0.82794
H         -0.02842        3.76634       -0.08941
H         -0.07133        3.77214        1.69398
H          0.72154        5.12083        0.81668
