32
1-BROMODECANE.gamout	Energy:   -2967.5435958
C         69.05472       11.04390       -0.00039
C         70.36040       10.23234       -0.00012
C         69.25646       12.56655        0.00011
C         70.13342        8.71326       -0.00047
C         71.42530        7.87934       -0.00011
C         71.15258        6.36302       -0.00033
C         72.43321        5.53914        0.00011
Br        72.06585        3.59416       -0.00007
C         67.94203       13.36364       -0.00013
C         68.13198       14.88848        0.00040
C         66.81349       15.67231        0.00016
H         68.44557       10.75370       -0.88761
H         68.44496       10.75325        0.88626
H         70.97133       10.51684        0.88768
H         70.97195       10.51721       -0.88738
H         69.86374       12.85969        0.88770
H         69.86440       12.86022       -0.88685
H         69.52021        8.43315       -0.88780
H         69.51961        8.43290        0.88638
H         72.04045        8.15001        0.88870
H         72.04114        8.15022       -0.88838
H         70.54133        6.09440       -0.89000
H         70.54069        6.09432        0.88887
H         73.05371        5.71906        0.89988
H         73.05441        5.71913       -0.89916
H         67.33525       13.06814       -0.88749
H         67.33462       13.06761        0.88663
H         68.73925       15.18096        0.88732
H         68.73990       15.18150       -0.88590
H         66.98663       16.76862        0.00057
H         66.19922       15.43223       -0.89429
H         66.19855       15.43166        0.89400
