11
1-BROMOPROPANE.gamout	Energy:   -2692.5642504
C         -0.13535       -0.08959       -0.06904
C          1.39877       -0.18995       -0.06903
C          2.05525        1.18669       -0.06898
Br         4.03097        1.07304       -0.06860
H         -0.59423       -1.09936       -0.06916
H         -0.51067        0.44808       -0.96551
H         -0.51069        0.44788        0.82754
H          1.74804       -0.75760       -0.95801
H          1.74803       -0.75767        0.81992
H          1.79228        1.77630        0.83101
H          1.79264        1.77619       -0.96914
