35
1-BROMOUNDECANE.gamout	Energy:   -3006.8265972
C         -0.18532       -0.14688        0.00013
C          1.17336        0.56516       -0.00003
C          1.06135        2.09818        0.00009
C          2.41239        2.83052       -0.00007
C          2.28327        4.36142        0.00001
C          3.62536        5.11067       -0.00012
C          3.47332        6.63950       -0.00002
C          5.95599        9.71417       -0.00012
C          4.62601        8.93444       -0.00001
C          5.72140       11.22027       -0.00000
C          4.80460        7.40791       -0.00014
Br         7.40766       12.25075       -0.00009
H         -0.07295       -1.25101        0.00006
H         -0.78465        0.12847        0.89437
H         -0.78490        0.12856       -0.89393
H          1.76490        0.24181       -0.88682
H          1.76516        0.24169        0.88654
H          0.46954        2.42327        0.88725
H          0.46926        2.42338       -0.88684
H          3.00526        2.50878       -0.88743
H          3.00550        2.50871        0.88711
H          1.68820        4.68020        0.88698
H          1.68798        4.68028       -0.88678
H          4.22227        4.79709       -0.88753
H          4.22248        4.79701        0.88712
H          2.87378        6.94931        0.88703
H          2.87356        6.94941       -0.88689
H          6.55846        9.42944        0.89007
H          6.55827        9.42955       -0.89047
H          4.02309        9.23437       -0.88774
H          4.02333        9.23424        0.88793
H          5.16901       11.55553       -0.89965
H          5.16917       11.55542        0.89978
H          5.40613        7.10533       -0.88779
H          5.40635        7.10522        0.88734
