8
1-BROMO-2-CHLOROETHANE.gamout	Energy:   -3112.7775194
Br        -1.57710        0.02698        0.00000
C          0.29032       -0.61604       -0.00000
C          1.23862        0.56821       -0.00000
Cl         2.95009       -0.04216        0.00000
H          0.41067       -1.24237        0.90345
H          0.41067       -1.24238       -0.90345
H          1.11082        1.19774       -0.90137
H          1.11082        1.19774        0.90137
