15
1-BUTANETHIOL.gamout	Energy:    -556.4327273
C         18.00675       10.03894       -0.00010
C         19.29337        9.19555        0.00010
C         19.01818        7.68782       -0.00011
C         18.27218       11.54914        0.00010
S         20.61956        6.76259        0.00020
H         17.39224        9.76693       -0.88830
H         17.39181        9.76676        0.88774
H         19.91069        9.45450        0.89005
H         19.91108        9.45467       -0.88953
H         18.43041        7.40257       -0.89842
H         18.42995        7.40238        0.89784
H         17.32637       12.13005       -0.00005
H         18.85363       11.85892        0.89457
H         18.85401       11.85910       -0.89406
H         20.07556        5.51215       -0.00002
