18
1-CHLORONAPHTHALENE.gamout	Energy:    -845.1101039
C          5.72190        0.52815        1.93866
C          4.55693        0.44197        1.10399
C          6.86824        1.19977        1.53153
Cl         5.71281       -0.23143        3.52279
C          3.36065       -0.23769        1.48306
C          4.61688        1.08685       -0.19217
C          6.90586        1.82524        0.25604
C          2.26726       -0.28376        0.62759
C          3.47057        1.01666       -1.04302
C          5.80602        1.77140       -0.58828
C          2.32085        0.34796       -0.64597
H          7.73863        1.24129        2.20250
H          3.32301       -0.72498        2.46844
H          7.82065        2.35430       -0.05410
H          1.35255       -0.81327        0.93770
H          3.51943        1.50806       -2.02830
H          5.83585        2.25667       -1.57687
H          1.44779        0.30502       -1.31618
