8
1-CHLORO-1,1-DIFLUOROETHANE.gamout	Energy:    -737.5955329
C          0.96050        0.89933       -0.03013
Cl        -0.21852        2.25028        0.27504
F          2.19455        1.44567       -0.16734
F          0.99087        0.11435        1.07601
C          0.58063        0.09732       -1.25557
H          0.57420        0.74912       -2.14899
H          1.33106       -0.70769       -1.39278
H         -0.41997       -0.35328       -1.11846
