31
1-DECANAL.gamout	Energy:    -467.9788612
C          4.17591        2.16646        3.56449
C          2.89987        2.82994        3.02380
C          4.44697        2.45451        5.04870
C          2.64191        2.56805        1.53185
C          1.36336        3.23006        1.00289
C          7.20633        1.33890        7.64566
C          5.98483        2.07738        7.07861
C          7.50001        1.67701        9.10913
C          5.70695        1.76890        5.59940
O          9.32789        0.08022        9.14999
C          8.65740        0.91726        9.72376
H          4.11099        1.06429        3.40963
H          5.05077        2.50019        2.95947
H          2.95258        3.93001        3.19894
H          2.02321        2.47666        3.61543
H          3.56416        2.13838        5.65180
H          4.53100        3.55609        5.19883
H          3.51801        2.92335        0.94244
H          2.59208        1.46884        1.35729
H          1.39588        4.33377        1.12912
H          1.20943        3.02290       -0.07656
H          0.46422        2.86452        1.54411
H          8.10809        1.56427        7.03478
H          7.06042        0.24015        7.55353
H          5.08348        1.81862        7.68179
H          6.12066        3.17691        7.20423
H          6.61154        1.49490        9.76185
H          7.71415        2.76427        9.25053
H          6.58982        2.07082        4.98975
H          5.61607        0.66622        5.46454
H          8.87291        1.18936       10.80533
