23
1-FLUOROHEPTANE.gamout	Energy:    -375.3315453
C         70.01850       10.04066        0.00013
C         68.70339        9.24419       -0.00006
C         68.89339        7.72034        0.00013
C         69.80738       11.56183       -0.00009
C         67.57241        6.93258       -0.00011
C         71.11032       12.35223        0.00009
C         67.76126        5.41110        0.00006
F         70.84986       13.71984       -0.00013
H         70.62390        9.74615        0.88840
H         70.62429        9.74594       -0.88781
H         68.09836        9.54109       -0.88754
H         68.09800        9.54125        0.88713
H         69.49803        7.42186        0.88794
H         69.49844        7.42169       -0.88736
H         69.21282       11.86500       -0.89046
H         69.21246       11.86519        0.88998
H         66.97089        7.23586       -0.88721
H         66.97046        7.23601        0.88665
H         71.72212       12.11071        0.90078
H         71.72250       12.11049       -0.90028
H         66.78846        4.87646       -0.00016
H         68.32673        5.07172        0.89439
H         68.32720        5.07158       -0.89392
