51
1-HEXADECANOL.gamout	Energy:    -704.8784498
C         -8.17171        1.93190        1.43643
C         -6.94837        2.70009        0.92168
H         -9.10124        2.53217        1.35005
H         -8.05340        1.65132        2.50521
H         -8.32703        0.99157        0.86506
C         -5.63574        1.90560        1.01546
H         -6.83710        3.65342        1.48733
H         -7.11493        3.00087       -0.13816
C         -4.40578        2.66943        0.50376
H         -5.74268        0.95309        0.44552
H         -5.46740        1.60003        2.07470
C         -3.09171        1.87841        0.59399
H         -4.29930        3.62192        1.07341
H         -4.57714        2.97447       -0.55498
C         -1.86545        2.65077        0.08556
H         -3.19447        0.92835        0.01967
H         -2.92130        1.56932        1.65164
C         -0.54679        1.86685        0.17141
H         -1.76361        3.60077        0.66022
H         -2.03867        2.96110       -0.97130
C          0.67485        2.65150       -0.32905
H         -0.64331        0.92024       -0.40969
H         -0.37580        1.55171        1.22716
C          1.99946        1.87699       -0.24737
H          0.76927        3.59697        0.25440
H          0.50134        2.97069       -1.38320
C          3.21677        2.67983       -0.72899
H          1.91356        0.93741       -0.84143
H          2.16768        1.54975        0.80512
C          4.54852        1.91699       -0.65184
H          3.29944        3.61580       -0.12859
H          3.04656        3.01617       -1.77831
C          5.76240        2.74638       -1.09623
H          4.48010        0.99193       -1.27046
H          4.70834        1.56568        0.39414
C          7.10127        1.99570       -1.02675
H          5.59998        3.11431       -2.13611
H          5.82924        3.66311       -0.46527
C          8.31237        2.85896       -1.40927
H          7.05708        1.09721       -1.68562
H          7.24612        1.60277        0.00644
C          9.65199        2.11052       -1.34866
H          8.37308        3.73920       -0.73266
H          8.16876        3.27184       -2.43528
C         10.86725        2.99318       -1.62664
H          9.65865        1.26786       -2.07604
H          9.78134        1.65664       -0.33989
O         10.95091        3.98655       -0.60992
H         10.76537        3.45412       -2.64345
H         11.78688        2.35495       -1.65577
H         11.70161        4.56849       -0.82583
