51
1-HEPTADECENE.gamout	Energy:    -667.7658594
C          6.27379        0.21712        5.59651
C          5.07704        0.70257        6.44134
C          4.13283        1.71369        5.76071
C          7.24691        1.31116        5.11136
C          3.42307        1.19072        4.50168
C          7.96466        2.11998        6.21072
C          2.45166        2.20138        3.87311
C          8.91695        1.29414        7.09239
C          1.77053        1.68479        2.59450
C          9.65277        2.09571        8.18284
C          0.73833        2.63977        1.96829
C         10.66356        3.13340        7.66741
C          1.32341        3.96304        1.42729
C         11.42646        3.86040        8.78712
C          0.30423        4.81425        0.71577
C         12.43134        4.89771        8.27292
C         -0.05651        6.06291        1.06500
H          6.83088       -0.54314        6.18803
H          5.89846       -0.33438        4.70557
H          5.44700        1.14696        7.39221
H          4.48368       -0.18991        6.74490
H          3.36159        2.03016        6.49943
H          4.69269        2.64248        5.50489
H          6.70376        2.01861        4.44572
H          8.01627        0.82962        4.46550
H          4.17858        0.89721        3.73717
H          2.87381        0.25271        4.75092
H          7.21450        2.62637        6.86134
H          8.53332        2.93935        5.71872
H          1.66938        2.48254        4.61653
H          3.00821        3.14035        3.65184
H          9.66926        0.78838        6.44217
H          8.34785        0.47335        7.58219
H          2.55313        1.44180        1.83778
H          1.26618        0.71866        2.82356
H         10.18986        1.38161        8.84817
H          8.90349        2.60189        8.83545
H         -0.05589        2.87513        2.71344
H          0.22284        2.11159        1.13471
H         10.14764        3.89291        7.03711
H         11.39449        2.62894        6.99265
H          2.14938        3.71532        0.71766
H          1.78380        4.55062        2.25110
H         11.95503        3.10759        9.41571
H         10.69273        4.35297        9.46557
H         -0.18566        4.34625       -0.16088
H         11.93034        5.68599        7.67076
H         12.96464        5.40459        9.10416
H         13.20110        4.42882        7.62266
H         -0.81605        6.62574        0.49879
H          0.40113        6.57010        1.93251
