27
1-METHYL-1-ETHYLCYCLOHEXANE.gamout	Energy:    -353.5408891
C          1.66606        3.09602        1.12127
C          0.84564        1.96066        1.76001
C          1.70716        0.70626        1.98607
C          2.96183        3.47358        1.89785
C          3.77982        2.17547        2.15868
C          2.59663        4.16762        3.22971
C          3.77583        4.45139        0.99984
C          2.96597        1.03745        2.80450
C          5.10665        4.97531        1.55716
H          1.03383        4.00450        0.99799
H          1.95944        2.78211        0.09229
H         -0.02402        1.71967        1.11078
H          0.41821        2.29641        2.73209
H          2.01414        0.29169        0.99744
H          1.11323       -0.08832        2.48875
H          4.66441        2.40959        2.78975
H          4.17963        1.81330        1.18232
H          2.06242        5.12418        3.04166
H          3.49833        4.40105        3.83408
H          1.93581        3.54219        3.86374
H          3.96913        3.93841        0.02965
H          3.11862        5.31798        0.75637
H          2.66880        1.32237        3.83932
H          3.60787        0.13527        2.90834
H          5.82149        4.15555        1.77944
H          4.96995        5.56145        2.48997
H          5.60045        5.64508        0.82246
