22
1-METHYL-2-ISOPROPENYLBENZENE.gamout	Energy:    -387.9843162
C          3.10409        2.78861        2.11770
C          3.28984        4.14250        2.47973
C          4.56333        4.73387        2.47230
C          4.23575        2.00608        1.74783
C          1.71190        2.22264        2.13517
C          5.50832        2.61724        1.75242
C          4.10548        0.54259        1.38130
C          5.67926        3.96648        2.10270
C          1.05416        2.05241        3.30420
C          1.07009        1.92433        0.79671
H          2.40773        4.73651        2.76818
H          4.68099        5.79131        2.75797
H          6.38908        2.01075        1.48223
H          3.30690        0.04384        1.96738
H          3.85724        0.40862        0.30504
H          5.05509       -0.00010        1.56300
H          6.68621        4.41345        2.09483
H          0.02006        1.66885        3.33107
H          1.53122        2.28700        4.26957
H          0.04304        1.52489        0.91761
H          1.01767        2.84668        0.17800
H          1.66061        1.18833        0.21115
