20
1-METHYLINDENE.gamout	Energy:    -386.7910551
C          2.20008        0.73044        4.71158
C          1.98004        2.06861        3.97363
C          3.21770        2.62862        3.28772
C          0.98669        1.98645        2.82832
C          2.93388        2.82892        1.90646
C          4.47839        2.94596        3.80481
C          1.54448        2.41642        1.66320
C          3.91562        3.34933        1.04280
C          5.46222        3.46716        2.93658
C          5.18132        3.66651        1.57069
H          2.95672        0.83847        5.51559
H          1.25798        0.37563        5.17883
H          2.55403       -0.05178        4.00908
H          1.60875        2.81427        4.71968
H         -0.04252        1.61672        2.95192
H          4.70961        2.79380        4.87215
H          1.04414        2.46098        0.68415
H          3.69786        3.50873       -0.02570
H          6.45905        3.72164        3.33079
H          5.96182        4.07596        0.90932
