25
1-N-PROPYLCYCLOHEXENE.gamout	Energy:    -352.3193827
C          0.87361        1.77151        5.04223
C          0.89633        3.30038        4.89750
C          2.24030        1.17312        4.66694
C          1.21489        3.70883        3.44974
C          2.36866        2.92792        2.83823
C          2.81980        1.78710        3.41327
C          2.91239        3.49270        1.53602
C          4.19063        2.86895        0.94837
C          5.47695        3.21217        1.71357
H          0.09170        1.35426        4.36753
H          0.59235        1.47425        6.07512
H          1.67361        3.71895        5.57680
H         -0.07191        3.74191        5.21748
H          2.15702        0.07044        4.53599
H          2.96057        1.30734        5.51068
H          1.44277        4.79820        3.39853
H          0.31140        3.57602        2.80555
H          3.66440        1.24871        2.94987
H          2.09328        3.42761        0.77943
H          3.07468        4.58918        1.67125
H          4.06917        1.76471        0.87812
H          4.29390        3.22132       -0.10149
H          5.65516        4.30918        1.72313
H          5.43446        2.87941        2.77116
H          6.36574        2.73727        1.24753
