25
1-NONYNE.gamout	Energy:    -352.2583307
C          6.09668        1.95457        1.08638
C          4.82068        2.81481        1.16039
C          3.69124        2.21635        2.01259
C          6.90244        1.87471        2.39304
C          2.44228        3.12775        2.07414
C          8.18856        1.04015        2.27862
C          1.34033        2.56898        2.85973
C          9.00339        0.98776        3.57656
C          0.43047        2.08666        3.52102
H          5.82673        0.92448        0.75607
H          6.75563        2.36078        0.28624
H          4.43854        2.98557        0.12846
H          5.08321        3.82480        1.55388
H          4.04093        2.02695        3.05043
H          3.39318        1.22574        1.60352
H          7.16410        2.90787        2.72193
H          6.27053        1.45329        3.20761
H          2.08261        3.33523        1.03973
H          2.72661        4.11868        2.49707
H          7.92620        0.00526        1.95997
H          8.81917        1.45261        1.45790
H          8.41474        0.54379        4.40799
H          9.92529        0.38046        3.46073
H          9.31324        2.00480        3.90000
H         -0.37364        1.66018        4.10458
