22
1-PROPENYLCYCLOPENTANE.gamout	Energy:    -313.0256761
C         -3.00669       -1.33976        1.01777
C         -4.09519       -0.73763        0.08680
C         -1.83562       -0.32110        0.97754
C         -3.97438        0.77013        0.38050
C         -2.45062        1.01461        0.44996
H         -3.42482       -1.41896        2.04546
H         -2.70269       -2.36337        0.71410
H         -1.37623       -0.19888        1.98017
H         -1.02497       -0.67049        0.30471
H         -4.48514        1.40665       -0.37178
H         -4.44635        0.98339        1.36601
H         -2.19378        1.88577        1.08728
H         -2.06025        1.24399       -0.56469
C         -5.45402       -1.37500        0.22397
H         -3.74955       -0.90694       -0.96455
C         -6.61771       -0.74712        0.49502
C         -7.95744       -1.41731        0.62601
H         -8.40913       -1.23163        1.62613
H         -7.88823       -2.51526        0.48133
H         -8.68417       -1.01974       -0.11744
H         -5.47290       -2.47499        0.08803
H         -6.61285        0.35139        0.62681
