42
1-TETRADECENE.gamout	Energy:    -549.9230801
C          8.64195        2.22676        1.86303
C         10.14553        2.23664        2.18008
C         10.81004        0.84866        2.06969
C         12.27204        0.85186        2.43333
C         13.28592        0.50656        1.61776
C          7.97488        3.60612        1.96512
C          6.46942        3.59491        1.65596
C          5.80021        4.97411        1.74823
C          4.29296        4.95498        1.44949
C          3.61743        6.33278        1.52131
C          2.10786        6.28726        1.22850
C          1.39879        7.65276        1.19300
C          1.33927        8.39758        2.53830
C          0.55281        9.71187        2.46848
H          8.12695        1.51692        2.55146
H          8.48483        1.81297        0.84011
H         10.30255        2.64159        3.20636
H         10.66760        2.94490        1.49764
H         10.68010        0.44691        1.04023
H         10.26915        0.14487        2.74629
H         12.51103        1.18323        3.46325
H         14.33501        0.54088        1.95417
H         13.10451        0.17226        0.58099
H          8.48673        4.31734        1.27609
H          8.13620        4.01888        2.98792
H          5.95722        2.89246        2.35394
H          6.30699        3.17040        0.63825
H          6.30523        5.67967        1.04824
H          5.96841        5.39722        2.76569
H          3.78667        4.26325        2.16239
H          4.12438        4.51275        0.44029
H          4.10949        7.02623        0.79978
H          3.79837        6.77271        2.52801
H          1.60805        5.63604        1.98322
H          1.95307        5.77829        0.25026
H          0.35789        7.50224        0.82589
H          1.88923        8.30628        0.43400
H          2.37083        8.60349        2.90193
H          0.88264        7.72673        3.30208
H         -0.49686        9.53800        2.14732
H          1.00585       10.41613        1.73782
H          0.51961       10.22780        3.45072
