17
1-THIAINDAN.gamout	Energy:    -707.5557078
S         -1.82785        1.43315       -0.20248
C         -1.61985       -1.28307       -0.21846
C         -0.22533       -0.70695       -0.06481
C         -2.60692       -0.19352        0.23947
C         -0.20407        0.71122       -0.09042
C          0.98424       -1.41050        0.02723
C          1.00974        1.41929       -0.04263
C          2.20624       -0.71004        0.08392
C          2.21416        0.69569        0.04269
H         -1.79605       -1.52626       -1.29246
H         -1.76436       -2.22325        0.35465
H         -3.59510       -0.25592       -0.25614
H         -2.75595       -0.21650        1.33984
H          0.97796       -2.51287        0.05103
H          1.01808        2.52015       -0.06200
H          3.15385       -1.26543        0.16223
H          3.17022        1.24158        0.08568
