39
1-TRIDECENE.gamout	Energy:    -510.6374782
C          4.50769        4.13742        2.24582
C          5.75408        4.63608        1.49715
C          6.59667        3.52483        0.83845
C          3.67355        5.25511        2.89118
C          7.25400        2.51842        1.80405
C          2.44178        4.74133        3.65350
C          8.34232        3.11567        2.70960
C          1.63196        5.84634        4.35046
C          9.00545        2.09200        3.66000
C          0.37538        5.35944        5.09813
C          8.08191        1.57039        4.73084
C          0.65785        4.44366        6.29769
C          7.77748        0.27794        4.95363
H          4.80952        3.41767        3.04046
H          3.86545        3.55538        1.54441
H          5.43826        5.35797        0.71014
H          6.38794        5.22682        2.19763
H          5.95351        2.96394        0.12307
H          7.39210        3.99774        0.21842
H          3.35177        5.98127        2.10858
H          4.31825        5.83804        3.58957
H          6.47519        2.03493        2.43512
H          7.70050        1.69043        1.20766
H          2.77709        3.98713        4.40088
H          1.77740        4.18934        2.94822
H          7.91721        3.94101        3.32524
H          9.13049        3.58821        2.08072
H          2.29271        6.39257        5.06384
H          1.32796        6.60153        3.58992
H          9.42571        1.24190        3.07701
H          9.87347        2.58950        4.15193
H         -0.19469        6.24912        5.44733
H         -0.29747        4.83856        4.37886
H          7.62701        2.34147        5.38403
H          1.16005        3.50140        5.99372
H         -0.27894        4.16020        6.82136
H          1.31435        4.94603        7.04070
H          8.20348       -0.53040        4.33372
H          7.09637       -0.02319        5.76635
