32
2,2,3,4,4-PENTAMETHYLPENTANE.gamout	Energy:    -394.0009504
C         -0.20486       38.52066        0.56463
C          1.17685       38.13008       -0.01002
C          2.29107       39.26085        0.13528
C          1.64800       36.90234        0.81722
C          0.97024       37.66839       -1.47449
C          1.92871       40.78848       -0.13045
C          3.56070       38.84955       -0.64842
C          1.24909       41.03529       -1.49655
C          1.03782       41.37732        0.99420
C          3.23501       41.62906       -0.10154
H         -0.87484       37.63460        0.54104
H         -0.70401       39.31849       -0.02052
H         -0.13687       38.85389        1.62041
H          2.56781       39.23764        1.21599
H          2.62386       36.50373        0.47272
H          0.91082       36.07502        0.74052
H          1.74959       37.15989        1.89321
H          0.20740       36.86140       -1.51270
H          0.61365       38.48899       -2.12757
H          1.89734       37.25850       -1.92334
H          4.46511       39.36435       -0.27168
H          3.76241       37.76373       -0.56381
H          3.47643       39.08058       -1.73130
H          1.14233       42.12660       -1.67835
H          1.84468       40.62271       -2.33781
H          0.23259       40.59587       -1.55190
H          0.95351       42.47835        0.87142
H          1.48148       41.19032        1.99556
H          0.00951       40.97421        0.99982
H          3.81518       41.45416        0.83041
H          3.90314       41.42203       -0.96122
H          2.98660       42.71096       -0.13685
