32
2,2,3,3-TETRAMETHYLHEXANE.gamout	Energy:    -394.0099138
C          2.02612        2.03077        2.84227
C          3.41109        2.11596        2.03429
C          4.54414        2.63195        2.97779
C          3.81219        0.72086        1.49339
C          3.27256        3.06685        0.81898
C          2.20735        1.32559        4.20984
C          1.44754        3.44213        3.11053
C          0.96164        1.23261        2.04888
C          5.87542        3.05319        2.32904
C          6.93603        3.43042        3.37334
H          4.76693        1.84131        3.72841
H          4.16457        3.50107        3.56130
H          3.83432       -0.05082        2.29135
H          3.12155        0.36993        0.70012
H          4.82607        0.75321        1.04281
H          4.15831        2.98285        0.15697
H          3.18440        4.13109        1.11943
H          2.38471        2.81483        0.20253
H          1.21694        1.16764        4.68718
H          2.68334        0.32803        4.10585
H          2.81756        1.92088        4.91855
H          1.11815        3.94621        2.17929
H          0.55852        3.37066        3.77314
H          2.17723        4.10807        3.61675
H         -0.01950        1.29517        2.56592
H          0.81586        1.62922        1.02248
H          1.21754        0.15690        1.96530
H          5.71479        3.91826        1.64934
H          6.26851        2.23175        1.68914
H          7.16499        2.57582        4.04581
H          7.88846        3.74600        2.89863
H          6.58879        4.26903        4.01458
