29
2,2,4-TRIMETHYLHEXANE.gamout	Energy:    -354.7345293
C          3.96099        2.63654        2.31636
C          5.29920        3.35503        1.95850
C          3.18203        1.93981        1.16437
C          5.02173        4.56883        1.04233
C          5.93372        3.86007        3.27446
C          6.29645        2.40460        1.25938
C          1.65616        2.21425        1.23669
C          3.47994        0.43033        1.07886
C          0.93749        1.70664        2.49537
H          4.16751        1.89681        3.12367
H          3.30845        3.40737        2.78690
H          3.51770        2.39562        0.20443
H          5.96269        5.10451        0.79317
H          4.55289        4.26452        0.08288
H          4.34141        5.29626        1.53477
H          5.24445        4.53965        3.82003
H          6.17979        3.01504        3.95229
H          6.87323        4.41923        3.07703
H          6.52799        1.52252        1.89355
H          5.90653        2.03771        0.28737
H          7.25393        2.92913        1.05277
H          1.49419        3.31205        1.14308
H          1.17633        1.76267        0.33869
H          4.56123        0.23033        0.93967
H          3.17158       -0.09719        2.00709
H          2.93925       -0.04136        0.23052
H          1.01699        0.60473        2.60441
H          1.34900        2.16272        3.42060
H         -0.14395        1.95410        2.46017
