32
2,2,4-TRIMETHYLHEPTANE.gamout	Energy:    -394.0177384
C          5.12372        3.33820        1.25405
C          4.37126        2.04665        1.68050
C          2.84143        2.23920        1.53317
C          4.85449        0.80853        0.89924
C          6.43579        3.73645        2.00006
C          1.96444        1.13132        2.13861
C          6.98654        5.00783        1.31458
C          7.51297        2.63106        1.93688
C          6.13109        4.06175        3.48046
C          0.46126        1.38517        1.96371
H          5.34234        3.27641        0.16254
H          4.43103        4.20297        1.36587
H          4.56961        1.86924        2.76426
H          2.59393        2.35841        0.45113
H          2.56029        3.20707        2.00821
H          4.69784        0.95316       -0.19251
H          4.30464       -0.10873        1.19519
H          5.93181        0.60694        1.05631
H          2.20496        1.03379        3.22233
H          2.22220        0.14829        1.68620
H          7.92615        5.35286        1.79685
H          6.25540        5.84290        1.36752
H          7.20616        4.82272        0.24127
H          7.73445        2.33730        0.88877
H          8.46185        2.98478        2.39388
H          7.20270        1.71999        2.48971
H          5.76634        3.17073        4.03361
H          7.04201        4.42374        4.00305
H          5.35547        4.85277        3.56886
H         -0.14755        0.58039        2.42582
H          0.18436        1.43881        0.88889
H          0.15344        2.34628        2.42921
