28
2,2,4-TRIMETHYL-1,3-PENTANEDIOL.gamout	Energy:    -465.7694157
O          0.86512       -2.29089       -2.73782
O          3.10447       -0.57695        1.26568
C          2.06606       -1.36747       -0.77308
C          0.81726       -2.16030       -1.31592
C         -0.61447       -1.67367       -0.96435
C          1.90193       -1.13123        0.74210
C          3.31071       -2.26383       -0.99613
C          2.29662       -0.02720       -1.50208
C         -1.03777       -0.36789       -1.66273
C         -1.62013       -2.80019       -1.28105
H          0.90262       -3.17442       -0.84479
H         -0.63989       -1.50964        0.13630
H          1.65580       -2.10651        1.23911
H          1.03611       -0.44685        0.91669
H          4.20957       -1.79011       -0.55624
H          3.18506       -3.26079       -0.52057
H          3.51342       -2.41833       -2.07859
H          1.51746        0.72314       -1.26213
H          2.28757       -0.18105       -2.59967
H          3.27250        0.40768       -1.20741
H         -0.48107        0.51423       -1.29053
H         -2.11722       -0.17164       -1.49283
H         -0.87000       -0.43995       -2.75630
H         -1.60576       -3.03759       -2.36441
H         -1.37501       -3.73185       -0.72812
H         -2.65339       -2.50373       -1.00475
H          1.69281       -2.75417       -2.96318
H          2.94716       -0.36263        2.20245
