18
2,2-DIMETHYL-1-PROPANOL.gamout	Energy:    -272.7686085
C         -0.48843       -0.89606        1.26339
C         -0.45320       -0.00973        0.00002
C          0.83761        0.83789       -0.00001
O          1.97217       -0.01844        0.00001
C         -0.48844       -0.89613       -1.26330
C         -1.65798        0.95315       -0.00001
H         -0.46456       -0.27900        2.18753
H         -1.41319       -1.51030        1.29192
H          0.38544       -1.57729        1.29072
H          0.82589        1.50506       -0.90001
H          0.82590        1.50511        0.89996
H          2.76908        0.54120        0.00000
H         -1.41319       -1.51037       -1.29180
H         -0.46458       -0.27912       -2.18748
H          0.38543       -1.57737       -1.29061
H         -1.65685        1.60753        0.89827
H         -1.65683        1.60751       -0.89829
H         -2.61402        0.38869       -0.00001
