24
2,2-DIMETHYL-CIS-3-HEXENE.gamout	Energy:    -314.2239443
C          3.06933        2.17576        1.01639
C          2.10055        2.35610        2.19504
C          4.41909        2.08515        1.00113
C          2.20947        1.17161        3.18887
C          2.36441        3.69471        2.93108
C          0.65851        2.38736        1.63337
C          5.41069        2.11234        2.13866
C          6.28782        0.84671        2.19306
H          2.57925        2.11489        0.02653
H          4.88539        1.95685        0.00421
H          1.46436        1.27576        4.00765
H          2.01869        0.20509        2.67751
H          3.21271        1.11106        3.65669
H          1.62746        3.84065        3.75078
H          3.37761        3.73199        3.37956
H          2.27464        4.55555        2.23620
H         -0.08437        2.51714        2.44880
H          0.41507        1.44412        1.09977
H          0.52406        3.22488        0.91638
H          4.90007        2.25502        3.11239
H          6.07471        2.99900        2.00744
H          7.04416        0.91349        3.00260
H          5.67309       -0.05993        2.37399
H          6.83289        0.69034        1.23758
