23
2,2-DIMETHYLPENTANE.gamout	Energy:    -276.1750952
C          3.26048        2.35498        2.11222
C          1.71997        2.19394        1.94829
C          3.77527        3.65680        2.74923
C          1.44756        0.80539        1.32779
C          1.15485        3.28102        1.00567
C          1.00971        2.28004        3.31878
C          5.30662        3.70653        2.84641
H          3.63747        1.49444        2.71325
H          3.72812        2.23645        1.10692
H          3.41861        4.53223        2.16246
H          3.34090        3.77296        3.76654
H          1.83495       -0.00855        1.97735
H          0.35905        0.63395        1.18592
H          1.93754        0.70561        0.33561
H          0.06598        3.13485        0.84074
H          1.28957        4.30228        1.41900
H          1.65228        3.24892        0.01234
H          1.13641        3.27786        3.78730
H         -0.08143        2.10236        3.20976
H          1.40570        1.51993        4.02618
H          5.77757        3.63396        1.84274
H          5.65691        4.65081        3.31299
H          5.70175        2.86578        3.45634
