29
2,3,4-TRIMETHYLHEXANE.gamout	Energy:    -354.7317104
C          2.04161        1.69497        4.37960
C          3.10355        1.15609        3.36500
C          3.31680        2.04020        2.08796
C          4.41950        0.76768        4.06413
C          2.36364        3.08391        4.98171
C          0.62086        1.65182        3.78453
C          4.42130        3.10831        2.20936
C          3.57241        1.15846        0.84935
C          1.55958        3.43096        6.24340
H          2.05881        0.96862        5.22758
H          2.66327        0.20179        2.99315
H          2.35961        2.57907        1.90318
H          4.23355        0.01106        4.85549
H          4.91926        1.63384        4.54560
H          5.14625        0.32454        3.35128
H          2.19144        3.86710        4.20855
H          3.44611        3.13802        5.23069
H          0.36962        0.63578        3.41332
H          0.51239        2.35736        2.93257
H         -0.14864        1.92616        4.53484
H          4.44579        3.74079        1.29672
H          5.42732        2.64880        2.31179
H          4.27378        3.78336        3.07587
H          4.49644        0.55054        0.96687
H          3.69882        1.77335       -0.06709
H          2.73212        0.45535        0.67009
H          0.46671        3.46026        6.05092
H          1.84622        4.42543        6.64484
H          1.73314        2.68462        7.04849
