32
2,3,4,4-TETRAMETHYLHEXANE.gamout	Energy:    -394.0089983
C         -0.13047        1.72190        0.39682
C          0.71010        2.98001        0.65543
C          2.09149        3.08797       -0.06636
C          2.70146        4.51082        0.27072
C          3.02096        1.98297        0.48944
C          1.92677        2.86962       -1.58708
C          1.92390        5.73037       -0.34438
C          4.21650        4.62001        0.01106
C          1.90193        6.91270        0.64500
C          2.43537        6.21433       -1.71657
H         -1.06936        1.75992        0.98799
H         -0.42409        1.62312       -0.66911
H          0.39557        0.78817        0.68599
H          0.89630        3.07293        1.74987
H          0.09623        3.86582        0.38076
H          2.56951        4.60135        1.37479
H          3.98712        1.93750       -0.05316
H          2.55114        0.98243        0.39005
H          3.24401        2.14171        1.56695
H          1.62385        1.82502       -1.80987
H          1.15535        3.53712       -2.02461
H          2.87945        3.04974       -2.12796
H          0.86578        5.41583       -0.48587
H          4.57847        5.64957        0.21580
H          4.80097        3.94399        0.66567
H          4.48673        4.38304       -1.03954
H          1.34539        7.77989        0.23008
H          1.42150        6.63254        1.60606
H          2.93147        7.26463        0.87613
H          1.76609        7.00543       -2.11689
H          2.47843        5.40577       -2.47253
H          3.45052        6.65836       -1.64380
