24
2,3,4-TRIMETHYL-2-PENTENE.gamout	Energy:    -314.2318254
C          4.48695        2.77588        2.05464
C          3.20306        2.03787        1.65736
C          1.96029        2.59454        1.77214
C          3.42161        0.63337        1.12295
C          5.26540        3.27157        0.81476
C          5.39445        1.92915        2.97369
C          1.69623        4.00657        2.25655
C          0.67914        1.86173        1.42796
H          4.20602        3.67414        2.64157
H          2.59890        0.28014        0.47320
H          4.35369        0.57461        0.52183
H          3.53693       -0.10974        1.94442
H          4.64288        3.94698        0.19237
H          5.58901        2.42546        0.17143
H          6.18020        3.82784        1.11250
H          5.79639        1.03053        2.45929
H          6.26705        2.52579        3.31461
H          4.84936        1.58361        3.87722
H          1.03225        4.54086        1.54044
H          2.60621        4.62148        2.38190
H          1.15257        4.00199        3.22893
H         -0.04345        1.93624        2.27129
H          0.17231        2.32741        0.55164
H          0.81894        0.78754        1.20772
