32
2,3-DIMETHYL-4-ETHYLHEXANE.gamout	Energy:    -394.0080449
C          0.16680       29.29572       -1.07249
C          1.30919       30.02256       -0.35061
C          1.01767       31.47176        0.12048
C          0.13628       31.61877        1.42452
C          2.34098       32.26574        0.29509
C         -1.21662       32.36892        1.19651
C         -0.06046       30.32606        2.23874
C         -1.00316       33.81716        0.71935
C         -2.21190       31.63604        0.28063
C          3.14538       32.52343       -0.98577
H          0.48906       28.29015       -1.41671
H         -0.72517       29.15179       -0.42938
H         -0.16769       29.85819       -1.97103
H          2.17294       30.06066       -1.04936
H          1.66022       29.41053        0.50870
H          0.46768       31.96561       -0.71563
H          0.70835       32.29569        2.10086
H          2.09596       33.24836        0.75494
H          2.97945       31.73734        1.04196
H         -1.69158       32.43270        2.20427
H         -0.63719       30.54037        3.16384
H          0.90861       29.89032        2.55809
H         -0.61002       29.53628        1.68669
H         -1.96675       34.36704        0.66693
H         -0.33424       34.37996        1.40487
H         -0.55329       33.85867       -0.29650
H         -3.17466       32.18726        0.22784
H         -2.44111       30.61210        0.64184
H         -1.82856       31.54807       -0.75824
H          4.02922       33.16213       -0.77834
H          3.52400       31.58992       -1.45229
H          2.53003       33.04820       -1.74888
