14
2,3-DICHLOROBUTANE.gamout	Energy:   -1077.3292588
C          0.49974        1.07952        0.30862
C          2.03448        1.01650        0.34581
C          2.60980       -0.19678        1.06550
Cl         2.73507        1.11395       -1.34202
C         -0.07379        2.31019       -0.38268
Cl        -0.20135       -0.42970       -0.45190
H          0.15835        1.03935        1.36605
H          2.37292        1.95326        0.83961
H          3.71395       -0.13242        1.11805
H          2.21149       -0.24675        2.10180
H          2.32749       -1.12806        0.53701
H         -1.17794        2.32564       -0.30051
H          0.32657        3.23218        0.09133
H          0.20882        2.31760       -1.45344
