11
2,3-DIHYDROFURAN.gamout	Energy:    -231.0511487
O          1.22282       -0.04498        0.09690
C         -1.06669        0.75497       -0.02634
C          0.42899        1.17652        0.06399
C         -0.95816       -0.75849       -0.03630
C          0.34702       -1.09177        0.03574
H         -1.55790        1.15239       -0.94310
H         -1.66026        1.13296        0.83652
H          0.76609        1.77379       -0.80990
H          0.66261        1.75504        0.98314
H         -1.80193       -1.45723       -0.09204
H          0.82320       -2.08298        0.05318
