24
2,3-DIMETHYL-3-PENTANOL.gamout	Energy:    -351.3366593
C          2.30787       -0.78263        0.03964
C          1.20600        0.17943        0.52210
C          1.58317        1.62273        0.13390
C         -0.21956       -0.24564        0.00287
C         -1.31206        0.73542        0.51854
C         -2.73878        0.44022        0.03536
O         -0.23163       -0.27156       -1.43870
C         -0.55015       -1.68502        0.42725
H          3.30941       -0.42377        0.35570
H          2.18489       -1.80804        0.44089
H          2.29563       -0.84949       -1.06835
H          1.16139        0.13106        1.63531
H          1.58736        1.75525       -0.97146
H          0.90290        2.38354        0.56628
H          2.60793        1.86551        0.48379
H         -1.27578        0.75925        1.63103
H         -1.03685        1.76146        0.18910
H         -3.14884       -0.49271        0.47343
H         -3.42892        1.26352        0.31241
H         -2.75775        0.32701       -1.06791
H         -0.10365        0.64793       -1.74323
H         -0.53219       -1.78639        1.53182
H         -1.55524       -1.97323        0.06303
H          0.17265       -2.40156       -0.00695
