24
2,3-DIMETHYL-CIS-3-HEXENE.gamout	Energy:    -314.2286674
C          1.21596       -0.83370       -0.99533
C          2.22525       -0.00467       -0.17300
C          3.09820       -0.85791        0.76310
C          3.98465       -1.80940        0.37384
C          4.34147       -2.29754       -1.00927
C          4.05849       -3.80002       -1.20550
C          2.91446       -0.55630        2.23513
C          3.05584        0.95048       -1.05796
H          0.52572       -0.16691       -1.55585
H          0.59908       -1.48360       -0.34059
H          1.71597       -1.48973       -1.73718
H          1.61236        0.64687        0.48998
H          4.53193       -2.32917        1.18575
H          5.42984       -2.11847       -1.17746
H          3.81513       -1.71585       -1.79218
H          4.58957       -4.41328       -0.44644
H          4.38925       -4.14655       -2.20696
H          2.97462       -4.01946       -1.10707
H          3.13700        0.51175        2.45929
H          3.56410       -1.18319        2.87875
H          1.85828       -0.72190        2.54793
H          3.68021        0.39832       -1.78983
H          3.73736        1.57501       -0.44402
H          2.39470        1.63527       -1.63169
