24
2,3-DIMETHYL-2-PENTANOL.gamout	Energy:    -351.3366916
C          1.29182        0.08383       -1.53318
C          0.99673        0.17269       -0.02307
C          1.30471        1.59395        0.49608
C         -0.46086       -0.26662        0.34207
C         -1.54868        0.61234       -0.31696
C         -2.96297        0.39700        0.24213
C         -0.69246       -1.76588        0.07419
O          1.84110       -0.75407        0.68918
H          2.35462        0.34435       -1.73243
H          1.12110       -0.94242       -1.91621
H          0.66818        0.78667       -2.12330
H          0.71524        2.38044       -0.01812
H          1.10661        1.65734        1.58557
H          2.37826        1.83048        0.32931
H         -0.52745       -0.11368        1.44518
H         -1.28676        1.68523       -0.19128
H         -1.55736        0.42797       -1.41557
H         -3.33253       -0.63486        0.06858
H         -2.99378        0.58110        1.33768
H         -3.68941        1.08923       -0.23227
H          0.12446       -2.36699        0.51564
H         -1.65101       -2.10816        0.51410
H         -0.73339       -1.98406       -1.01511
H          2.76369       -0.52037        0.47210
