24
2,4,4-TRIMETHYL-2-PENTENE.gamout	Energy:    -314.2288271
C          3.14614        1.36485        2.53430
C          1.99960        1.76419        1.92694
C          0.69405        1.06348        2.24171
C          1.86271        2.88522        0.92163
C          4.58507        1.88889        2.41720
C          5.13417        1.73747        0.97514
C          5.47434        1.03924        3.35851
C          4.68138        3.36784        2.87319
H          3.03149        0.51997        3.23992
H         -0.05804        1.77720        2.64854
H          0.23875        0.62713        1.32364
H          0.82604        0.24769        2.98021
H          1.14134        3.65151        1.28545
H          1.44168        2.50147       -0.03506
H          2.81133        3.40080        0.68809
H          4.56385        2.34175        0.24147
H          6.19523        2.06559        0.92807
H          5.08997        0.67981        0.64099
H          6.53187        1.37562        3.31970
H          5.13209        1.11768        4.41231
H          5.44923       -0.03410        3.07385
H          4.30434        3.48556        3.91047
H          5.73637        3.71846        2.85211
H          4.09168        4.04689        2.22533
