24
2,4-DIMETHYL-TRANS-3-HEXENE.gamout	Energy:    -314.2341138
C          0.78172       18.93652       -0.75390
C          0.79977       19.77720        0.53725
C          0.57046       21.26648        0.32700
C          1.57244       22.14983        0.56742
C         -0.81022       21.65515       -0.15173
C          1.57426       23.65571        0.42420
C          1.84866       24.33252        1.78466
C          2.61030       24.10056       -0.63120
H          0.97507       17.86559       -0.53408
H         -0.19584       18.99000       -1.27773
H          1.56110       19.28254       -1.46504
H          1.77342       19.63079        1.05236
H          0.01909       19.38422        1.23074
H          2.53587       21.72946        0.92105
H         -1.59176       21.24931        0.52887
H         -0.95483       22.75061       -0.21790
H         -1.02701       21.23184       -1.15760
H          0.57247       23.99154        0.07706
H          1.85442       25.43954        1.68977
H          1.08086       24.05663        2.53675
H          2.83836       24.02834        2.19076
H          2.62272       25.20606       -0.74113
H          2.39003       23.65888       -1.62507
H          3.63555       23.78139       -0.34295
