32
2,5,5-TRIMETHYLHEPTANE.gamout	Energy:    -394.0197060
C          4.24723        3.02051        2.52013
C          2.83601        3.19837        1.87853
C          5.28041        2.18414        1.74774
C          2.01979        4.10247        2.85332
C          2.96266        3.88274        0.49896
C          2.13785        1.82940        1.71813
C          6.62481        1.97166        2.48516
C          0.57569        4.44549        2.46110
C          7.50240        0.95678        1.73131
C          7.38932        3.28928        2.70484
H          4.11256        2.56792        3.53069
H          4.65954        4.03951        2.69908
H          5.49686        2.65629        0.76145
H          4.85001        1.18313        1.52074
H          2.58728        5.05086        2.99483
H          2.01222        3.60586        3.85085
H          1.96954        4.05591        0.03464
H          3.54712        3.26302       -0.21238
H          3.47110        4.86750        0.58491
H          2.03054        1.31407        2.69718
H          1.12333        1.93917        1.28197
H          2.70644        1.15633        1.04344
H          6.39455        1.53860        3.48854
H         -0.06041        3.54148        2.35996
H          0.51951        5.00279        1.50261
H          0.10470        5.08674        3.23524
H          7.76059        1.32887        0.71507
H          6.98679       -0.01909        1.60640
H          8.45656        0.76765        2.26725
H          6.81597        4.01406        3.31890
H          7.61711        3.77911        1.73201
H          8.35655        3.11451        3.22219
