16
2,5-DIMETHYLPYRROLE.gamout	Energy:    -288.5991121
C         -0.31476       -1.55543        0.12461
N         -1.17557       -0.69717       -0.54314
C         -1.11329       -2.40110        0.89363
C          1.17280       -1.48086       -0.03950
C         -2.48026       -2.03346        0.67511
C         -2.49780       -0.96833       -0.22446
C         -3.63530       -0.18641       -0.80750
H         -0.87560        0.03767       -1.18411
H         -0.74213       -3.20184        1.54545
H          1.65993       -2.25617        0.58299
H          1.49379       -1.65211       -1.09190
H          1.58726       -0.49615        0.27381
H         -3.36762       -2.49541        1.12558
H         -4.59699       -0.57133       -0.41650
H         -3.58335        0.89598       -0.55155
H         -3.67694       -0.25912       -1.91790
