11
2,5-DIHYDROFURAN.gamout	Energy:    -231.0433790
C          2.41101        0.87176        0.89923
C          1.06626        0.88839        0.89517
C          2.92922        2.28740        0.90391
C          0.58338        2.31644        0.89689
O          1.76629        3.11847        0.90180
H          3.05671       -0.01901        0.89930
H          0.39880        0.01383        0.89131
H          3.56043        2.50337        1.80368
H          3.56625        2.50730        0.00923
H         -0.04311        2.55147       -0.00147
H         -0.04787        2.54770        1.79288
