32
2,5-DIMETHYL-3-ETHYLHEXANE.gamout	Energy:    -394.0157931
C          0.71984       19.84656        1.12008
C          1.63982       20.71045        0.24054
C          0.84330       21.87167       -0.40450
C          2.84596       21.21125        1.05420
C          1.54458       22.64695       -1.55647
C          1.10446       22.18593       -2.98493
C          1.39349       24.18104       -1.39964
C          1.40308       20.70124       -3.25897
C         -0.36349       22.51217       -3.31778
C          2.21816       24.79027       -0.25914
H         -0.11933       19.41131        0.53635
H          1.27195       19.00518        1.59023
H          0.27271       20.44902        1.94197
H          2.03096       20.06239       -0.57711
H         -0.12885       21.47268       -0.77159
H          0.56848       22.57827        0.41287
H          3.54322       21.82184        0.44326
H          3.42872       20.36289        1.47174
H          2.51544       21.84025        1.91044
H          2.63849       22.43438       -1.49577
H          1.73512       22.77524       -3.69240
H          1.68947       24.66885       -2.35636
H          0.31905       24.43347       -1.25104
H          1.19357       20.44789       -4.31977
H          2.46666       20.45217       -3.05813
H          0.77508       20.02908       -2.63527
H         -0.60565       22.21844       -4.36102
H         -0.58525       23.59457       -3.22098
H         -1.06848       21.96373       -2.65599
H          2.06573       25.88786       -0.19124
H          1.94622       24.36032        0.72818
H          3.30564       24.61398       -0.40572
