26
2,5-DIMETHYLHEXANE.gamout	Energy:    -315.4586187
C          3.37092        2.29242        1.38157
C          4.68008        1.49212        1.46804
C          2.08709        1.44535        1.22025
C          5.97416        2.33922        1.47528
C          1.83342        0.52749        2.42965
C          0.87029        2.34954        0.95939
C          6.08990        3.23976        2.71771
C          7.21325        1.43825        1.33622
H          3.25479        2.93848        2.28246
H          3.44087        2.99455        0.51865
H          4.67774        0.84423        2.37496
H          4.72725        0.79514        0.59931
H          2.22811        0.79350        0.32496
H          5.93642        3.00299        0.57805
H          1.70283        1.12496        3.35907
H          0.91301       -0.07827        2.29084
H          2.67025       -0.18025        2.60129
H          1.02069        2.99294        0.06662
H         -0.05289        1.75457        0.79460
H          0.68287        3.02209        1.82521
H          6.11016        2.63122        3.64893
H          7.02477        3.83863        2.69245
H          5.24431        3.95325        2.80331
H          8.15060        2.03338        1.31372
H          7.29031        0.72948        2.19020
H          7.17636        0.83365        0.40524
