17
2,6-DIMETHYLPYRIDINE.gamout	Energy:    -326.6820701
C          2.43286        1.11442        0.00593
C          1.16590        0.28839       -0.01130
N          0.00001        0.96759        0.00004
C         -1.16588        0.28842        0.01141
C         -1.20844       -1.12417        0.01400
C         -0.00002       -1.83585        0.00001
C          1.20842       -1.12419       -0.01415
C         -2.43286        1.11444       -0.00591
H          2.74114        1.32864        1.05331
H          3.27624        0.59358       -0.49016
H          2.25508        2.09046       -0.48572
H         -2.17556       -1.65162        0.02195
H         -0.00002       -2.93810        0.00016
H          2.17554       -1.65165       -0.02168
H         -2.74237        1.32676       -1.05331
H         -3.27568        0.59451        0.49208
H         -2.25443        2.09131        0.48383
