30
2,6-DIMETHYL-4-HEPTANOL.gamout	Energy:    -429.9034301
C          3.29529        2.89848        2.30240
C          4.66084        2.25447        1.99550
C          2.05351        2.11745        1.81798
C          5.82459        3.13905        2.46194
O          4.83948        2.04601        0.58848
C          0.77673        2.94592        2.04390
C          1.92795        0.72979        2.47184
C          7.23685        2.56229        2.22041
C          8.30905        3.61880        2.53612
C          7.49020        1.27293        3.01962
H          3.28678        3.91001        1.83660
H          3.21393        3.05573        3.40325
H          4.72572        1.27563        2.53595
H          2.16176        1.97548        0.71530
H          5.73427        4.11453        1.93197
H          5.69316        3.35668        3.54689
H          4.19562        1.37053        0.30670
H          0.84070        3.93450        1.54288
H         -0.12328        2.42616        1.65276
H          0.61145        3.13060        3.12804
H          2.80015        0.07586        2.25941
H          1.02301        0.19495        2.11373
H          1.84549        0.81777        3.57758
H          7.29887        2.31399        1.13743
H          9.33052        3.23761        2.32444
H          8.27990        3.91170        3.60937
H          8.16540        4.54253        1.93635
H          8.51368        0.88094        2.83912
H          6.78090        0.46354        2.74808
H          7.39325        1.45293        4.11367
