19
2,6-DINITROTOLUENE.gamout	Energy:    -680.0997723
O          6.65541        4.15424       -0.55669
N          7.12216        3.06881       -0.90732
O          8.18926        2.91119       -1.50480
C          6.30474        1.85560       -0.61687
C          6.92048        0.60202       -0.35414
C          4.91411        2.05434       -0.63270
C          8.41675        0.41995       -0.26299
C          5.99673       -0.45361       -0.12741
C          4.05440        0.97352       -0.40432
N          6.46642       -1.84613        0.12574
C          4.60194       -0.28650       -0.13593
O          5.76129       -2.55112        0.85021
O          7.50544       -2.21005       -0.42968
H          4.53464        3.06815       -0.82267
H          8.83094        0.14273       -1.25387
H          8.91528        1.35613        0.04309
H          8.67944       -0.39610        0.43285
H          2.96344        1.11394       -0.42737
H          3.97119       -1.16151        0.07437
