32
2,6-DIMETHYLOCTANE.gamout	Energy:    -394.0215072
C          3.01757        2.16097        2.67321
C          1.60212        2.06674        2.04960
C          1.15031        3.35042        1.31480
C          1.44655        0.83676        1.13652
C          4.18738        2.38518        1.70048
C          1.16177        4.63204        2.15735
C          5.53846        2.53291        2.42027
C          6.77432        2.70421        1.50781
C          8.06859        2.66151        2.33823
C          6.70739        3.98807        0.66158
H          3.02394        2.97655        3.43180
H          3.20522        1.22789        3.25277
H          0.90305        1.92622        2.90906
H          0.12174        3.17875        0.92455
H          1.78142        3.49707        0.40768
H          0.38821        0.69509        0.83131
H          2.04531        0.93675        0.20580
H          1.77576       -0.09356        1.64620
H          3.99336        3.29008        1.08316
H          4.25361        1.53778        0.98057
H          2.19041        4.93843        2.44166
H          0.71252        5.48185        1.60213
H          0.58266        4.50753        3.09795
H          5.69758        1.63933        3.06708
H          5.48898        3.40060        3.12087
H          6.79396        1.83605        0.80584
H          8.16461        1.70564        2.89564
H          8.09067        3.48407        3.08708
H          8.96948        2.77000        1.69814
H          5.82558        3.99993       -0.01160
H          6.64345        4.88869        1.31179
H          7.61102        4.10088        0.02615
