26
2,6-DIETHYLANILINE.gamout	Energy:    -444.5322760
C          6.50858        1.83085       -0.50461
C          6.85118        0.51687       -0.13306
C          5.18484        2.29368       -0.44024
C          5.82044       -0.36464        0.31250
C          8.29054        0.04163       -0.22434
C          4.47345        0.09943        0.40066
N          6.14354       -1.65731        0.74093
C          4.18310        1.42165        0.01481
C          3.36597       -0.82128        0.88212
C          2.82264       -1.77787       -0.20083
C          8.61507       -0.75147       -1.50881
H          7.31117        2.50724       -0.84473
H          4.93747        3.32670       -0.73002
H          8.96469        0.92234       -0.16726
H          8.53955       -0.57611        0.66929
H          5.38291       -2.33734        0.74649
H          7.01201       -2.05049        0.37746
H          3.13979        1.77414        0.08472
H          3.72100       -1.41203        1.75811
H          2.52847       -0.20260        1.26868
H          2.02624       -2.43778        0.20321
H          2.39610       -1.20775       -1.05191
H          3.61963       -2.42939       -0.62001
H          9.67239       -1.09091       -1.51843
H          7.97172       -1.65094       -1.62015
H          8.44800       -0.12598       -2.40987
