14
2-ACETYLTHIOPHEN.gamout	Energy:    -705.3522500
C         -1.48401        1.93641       -0.54018
C         -2.75943        1.84684        0.28995
O         -2.92404        2.52279        1.30415
C         -3.80400        0.90680       -0.17430
S         -5.27877        0.79238        0.76604
C         -5.92586       -0.39256       -0.31453
C         -5.05631       -0.69400       -1.35420
C         -3.84374        0.04868       -1.27327
H         -0.80539        2.67206       -0.07015
H         -0.97624        0.95065       -0.59794
H         -1.70836        2.25388       -1.58036
H         -6.92356       -0.81349       -0.13057
H         -5.28363       -1.42315       -2.14538
H         -3.02184       -0.04107       -1.99830
