15
2-BUTANETHIOL.gamout	Energy:    -556.4353213
C          2.14460        2.77343        1.55678
C          0.75281        2.15188        1.36876
C          3.30758        1.90678        1.03401
C          3.49414        0.58539        1.78851
S          4.89388        2.87626        0.96937
H          2.18773        3.75726        1.04276
H          2.31930        2.98673        2.63683
H         -0.03623        2.82759        1.75900
H          0.53208        1.96891        0.29520
H          0.64637        1.18372        1.90137
H          3.13183        1.69095       -0.04468
H          4.32596       -0.00685        1.35862
H          3.72708        0.77314        2.85880
H          2.57346       -0.03578        1.74685
H          4.97369        3.10123        2.31391
