22
2-BUTOXYETHANOL.gamout	Energy:    -387.1992487
C         -4.62480        0.36514        0.40061
C         -3.35989       -0.33925       -0.10614
H         -4.67144        1.41637        0.04397
H         -4.65596        0.39162        1.51078
H         -5.54534       -0.14723        0.05193
C         -2.06060        0.33719        0.35462
H         -3.37920       -0.38115       -1.21912
H         -3.36389       -1.39952        0.23603
C         -0.80207       -0.36278       -0.15166
H         -2.01914        0.37274        1.46609
H         -2.03491        1.39489        0.00897
O          0.33878        0.32893        0.32475
H         -0.80095       -0.39743       -1.27294
H         -0.78500       -1.43019        0.19308
C          1.56078       -0.23765       -0.09885
C          2.70199        0.59136        0.48141
H          1.64427       -0.25154       -1.21567
H          1.66563       -1.29953        0.24261
O          3.91798        0.00682        0.04157
H          2.58078        1.64904        0.13734
H          2.60350        0.59950        1.59564
H          4.64832        0.53425        0.41002
