12
2-BUTYNE-1,4-DIOL.gamout	Energy:    -306.1542698
C          4.04597        1.08851        1.05006
C          2.82325        1.14836        1.05804
C          1.36056        1.19265        1.07194
C          5.50834        1.03399        1.05688
O          0.88714        2.45904        0.62414
O          5.99243        0.27724       -0.04810
H          0.98936        0.35398        0.42774
H          1.01381        0.96193        2.11275
H          5.88866        2.08814        1.04274
H          5.83623        0.59902        2.03686
H         -0.08730        2.41254        0.63936
H          6.96643        0.29774        0.00574
