8
2-CHLORO-1,1,1,2-TETRAFLUOROETHANE.gamout	Energy:    -935.9142646
C          0.16245        0.87351       -0.12633
C          0.68436       -0.53904        0.22977
F         -1.17644        0.85157       -0.27393
F          2.03087       -0.47326        0.41057
Cl         0.27417       -1.70915       -1.06177
F          0.46319        1.71571        0.88769
F          0.72046        1.34626       -1.25135
H          0.19558       -0.88213        1.16589
