15
2-CHLOROBENZOTRICHLORIDE.gamout	Energy:   -2109.3325522
C          7.26056        3.04722       -1.02189
Cl         8.02702        3.67546        0.49626
Cl         6.37021        4.43933       -1.76963
Cl         8.55050        2.56279       -2.19988
C          6.35154        1.85888       -0.70796
C          6.84547        0.66026       -0.11706
C          4.97068        1.91353       -0.99914
Cl         8.52735        0.43425        0.30293
C          5.98194       -0.41513        0.15897
C          4.10868        0.84196       -0.72443
C          4.61528       -0.32913       -0.14247
H          4.57111        2.82936       -1.45481
H          6.40535       -1.32169        0.61547
H          3.03928        0.93084       -0.96911
H          3.95333       -1.18049        0.08018
