31
2-CYCLOHEXENYLCYCLOHEXANONE.gamout	Energy:    -542.9313060
O          0.91678       -2.04450       -0.46956
C          0.65260        0.22056        0.42459
C          1.33619        1.47547       -0.19826
C         -0.84220        0.14603        0.16254
C          2.83644        1.55569        0.12231
C         -1.75332        0.16833        1.37787
C          3.57434        0.28719       -0.33061
C          1.43684       -1.05633        0.02124
C          2.94291       -0.97853        0.28922
C         -3.20288       -0.23754        1.06075
C         -3.69331        0.43045       -0.23366
C         -1.33959        0.05307       -1.09314
C         -2.81251        0.01236       -1.42270
H          0.81482        0.29885        1.52756
H          0.80563        2.38329        0.16014
H          1.19061        1.44977       -1.30127
H          2.97645        1.69692        1.21916
H          3.27919        2.45182       -0.36411
H         -1.33196       -0.50473        2.15937
H         -1.72925        1.18740        1.83680
H          4.65298        0.33983       -0.06882
H          3.52584        0.20909       -1.44026
H          3.08934       -0.95228        1.39439
H          3.40758       -1.91090       -0.08931
H         -3.25399       -1.34274        0.93757
H         -3.86753        0.01732        1.91380
H         -3.65311        1.53680       -0.11126
H         -4.75629        0.17393       -0.43052
H         -0.63887       -0.01463       -1.94431
H         -3.01968        0.65616       -2.30732
H         -3.08219       -1.01989       -1.75373
