32
2-ETHYLHEXYL_ACETATE.gamout	Energy:    -543.1723610
C          0.85748        4.15682        2.74026
C          1.72895        2.93457        2.42632
C          3.20666        3.11812        2.80903
C          4.08513        1.90496        2.46159
C          5.58800        2.04921        2.79869
C          5.80236        1.94123        4.31690
C          6.46566        1.02574        2.04065
C          8.93452        3.57457        5.48885
C          7.47217        3.47126        5.10632
O          7.17591        2.20473        4.69174
O          6.65868        4.37385        5.17284
C          6.62906        1.30643        0.54148
H          0.87084        4.39531        3.82543
H          1.21711        5.05964        2.20161
H         -0.20060        3.99310        2.44792
H          1.66102        2.69587        1.34001
H          1.32220        2.04057        2.95241
H          3.27200        3.34942        3.89608
H          3.60946        4.01894        2.29134
H          3.98513        1.70247        1.37227
H          3.68308        0.99420        2.96601
H          5.90782        3.07420        2.49731
H          5.14823        2.65049        4.86203
H          5.59932        0.90677        4.66674
H          7.46960        1.00946        2.51691
H          6.03859        0.00730        2.19307
H          9.11203        3.01296        6.42971
H          9.20246        4.63517        5.64183
H          9.57864        3.11886        4.71119
H          7.11845        2.28858        0.36752
H          5.65571        1.32546        0.00676
H          7.25453        0.53111        0.05238
