27
2-ETHYL-6-METHYLNAPHTHALENE.gamout	Energy:    -503.4662149
C          1.33190        1.24840        0.05818
C          2.50520        0.54662        0.32983
C          2.41281       -0.86160        0.56812
C          1.19340       -1.52278        0.53104
C         -0.01731       -0.81781        0.25165
C         -1.29089       -1.46276        0.20662
C         -2.46321       -0.76039       -0.06499
C         -2.37035        0.64887       -0.30186
C         -1.15164        1.30916       -0.26497
C          0.05972        0.60311        0.01052
C         -3.81102       -1.44319       -0.11472
C          3.85613        1.23707        0.34589
C          4.68726        0.99270       -0.92967
H          1.37475        2.33603       -0.12407
H          3.33299       -1.42721        0.79163
H          1.14431       -2.60732        0.72321
H         -1.33455       -2.54929        0.39350
H         -3.29180        1.21536       -0.51708
H         -1.10324        2.39501       -0.44983
H         -4.28700       -1.32162       -1.11185
H         -4.51237       -1.00833        0.63012
H         -3.72983       -2.52908        0.09135
H          4.43517        0.88739        1.22970
H          3.70583        2.32953        0.48232
H          4.88017       -0.08927       -1.08669
H          5.66940        1.50669       -0.86927
H          4.15794        1.36859       -1.82990
