33
2-ETHYLHEXYL_ACRYLATE.gamout	Energy:    -581.2219803
C          5.25569        4.32248        2.82090
C          4.27938        3.41801        2.06157
C          2.85914        3.53745        2.66262
C          4.79116        1.95814        2.04254
O          6.48830        4.40675        2.06987
C          2.12865        4.85999        2.37031
C          4.11458        1.05059        1.00771
C          7.45884        5.20135        2.59836
C          0.71415        4.95488        2.97497
C          8.68745        5.25115        1.75347
O          7.33433        5.81091        3.64923
C          0.67445        5.03863        4.50744
C          8.82917        4.65035        0.55585
H          5.47528        3.91679        3.83410
H          4.85740        5.34872        2.96410
H          4.25140        3.78892        1.00917
H          2.92582        3.36813        3.76226
H          2.23536        2.70260        2.27340
H          5.88511        1.97584        1.84830
H          4.66890        1.52841        3.06368
H          2.05953        4.98835        1.26644
H          2.73366        5.72145        2.73470
H          4.26898        1.43207       -0.02446
H          3.01905        0.96617        1.16963
H          4.52871        0.02182        1.04648
H          0.20694        5.84965        2.55075
H          0.11245        4.08121        2.63350
H          9.49683        5.85291        2.19821
H          1.23293        5.92558        4.87693
H         -0.36753        5.12251        4.88070
H          1.12086        4.14303        4.98850
H          8.01199        4.05446        0.11991
H          9.76352        4.74013       -0.02155
