26
2-ETHYL-HEXANOIC_ACID.gamout	Energy:    -464.6179336
C         -4.20306       -0.14123       -0.26891
C         -2.86812        0.59567       -0.10573
H         -4.38276       -0.84577        0.57112
H         -4.22781       -0.73374       -1.20861
H         -5.05858        0.56542       -0.29880
C         -1.64821       -0.33938       -0.06431
H         -2.89061        1.20671        0.82516
H         -2.73872        1.32336       -0.93912
C         -0.31495        0.40494        0.09938
H         -1.62168       -0.95049       -0.99624
H         -1.77750       -1.06624        0.76991
C          0.93983       -0.49883        0.08823
H         -0.32164        0.97959        1.05235
H         -0.20369        1.15204       -0.71807
C          2.24288        0.33480        0.13754
C          3.52904       -0.48793        0.00051
H          2.25263        0.89775        1.09665
H          2.19248        1.09559       -0.67237
H          3.64277       -1.21635        0.83094
H          3.54884       -1.06076       -0.95097
H          4.42456        0.16722        0.01526
C          0.90039       -1.44591        1.28322
H          0.93619       -1.11658       -0.83627
O          0.88789       -2.75688        0.91338
H          0.86650       -3.26541        1.75634
O          0.88662       -1.09844        2.45146
