21
2-HEXANETHIOL.gamout	Energy:    -634.9999343
C         33.92635       30.03454       -0.08825
C         32.61696       29.22030       -0.06316
C         33.73112       31.55843       -0.03819
C         31.73552       29.41187       -1.30056
S         33.11936       27.43901        0.14827
C         35.05586       32.33577        0.04333
C         34.87269       33.85691        0.09056
H         34.54648       29.72366        0.78246
H         34.50950       29.75504       -0.99550
H         32.04863       29.50634        0.84931
H         33.16224       31.90283       -0.93110
H         33.10039       31.82010        0.84331
H         30.81514       28.79510       -1.23910
H         31.41422       30.47119       -1.40177
H         32.27887       29.12028       -2.22354
H         31.85841       26.91719        0.14080
H         35.61860       31.99731        0.94290
H         35.69328       32.06132       -0.82790
H         35.84632       34.38594        0.15299
H         34.34792       34.23182       -0.81442
H         34.26988       34.16648        0.97132
