36
2-HISOQUIN+1.gamout	Energy:    -637.7185382
C          0.84114       -1.19390       -0.05400
C          0.13164       -2.45583       -0.06089
C          2.24565       -1.16208       -0.31384
C          0.85088       -3.64807       -0.35167
C          2.22040       -3.58893       -0.59409
H          0.31812       -4.61107       -0.37520
C          0.11129       -0.01441        0.21788
C         -1.26179       -2.42868        0.24894
C         -1.89699       -1.23759        0.52993
H         -1.84380       -3.36205        0.28127
N         -1.20471       -0.04023        0.49738
H          0.59452        0.97427        0.21840
H         -2.96155       -1.17097        0.79175
C         -1.95176        1.22859        0.74281
C         -2.95658        1.55219       -0.37431
H         -1.19422        2.03218        0.83458
H         -2.44935        1.12668        1.72851
C         -3.56353        2.96215       -0.23603
H         -3.76952        0.79217       -0.37587
H         -2.43898        1.46555       -1.35428
C         -4.35615        3.21611        1.05866
H         -2.75091        3.71540       -0.33744
H         -4.23150        3.12406       -1.10981
C         -5.05541        4.58926        1.10686
H         -5.12163        2.41534        1.17782
H         -3.68281        3.13232        1.94399
C         -4.10813        5.79697        1.06741
H         -5.66772        4.63468        2.03306
H         -5.78044        4.65698        0.26462
H         -3.36381        5.75996        1.89238
H         -3.54698        5.86482        0.11174
H         -4.67152        6.74584        1.17690
C          2.92033       -2.34756       -0.57031
H          2.77629       -4.51583       -0.80462
H          2.78089       -0.19996       -0.30049
H          4.00503       -2.33338       -0.75675
