11
2-IODOPROPANE.gamout	Energy:    -416.2815940
I         -0.67077       -0.00002        0.00985
C          1.52034        0.00009       -0.40290
C          2.13756        1.27863        0.14232
C          2.13731       -1.27855        0.14235
H          1.51946        0.00012       -1.51028
H          2.06655        1.32662        1.24849
H          3.21622        1.30525       -0.13202
H          1.65609        2.18223       -0.27845
H          1.65578       -2.18209       -0.27851
H          3.21599       -1.30528       -0.13183
H          2.06613       -1.32659        1.24853
