20
2-METHYLINDENE.gamout	Energy:    -386.7981953
C          2.96382        2.59949        1.81125
C          2.97406        2.66366        3.23451
C          1.91064        3.24809        3.92957
C          4.25296        2.02442        3.73196
C          1.87901        3.12626        1.08502
C          4.19828        1.93776        1.37527
C          0.81158        3.71307        1.79094
C          0.82417        3.77481        3.19793
C          4.96140        1.59470        2.45639
C          6.29174        0.90509        2.46160
H          1.91410        3.29957        5.03091
H          4.05560        1.15618        4.40305
H          4.87531        2.73364        4.32618
H          1.86268        3.08106       -0.01591
H          4.46409        1.74843        0.32392
H         -0.04483        4.12939        1.23643
H         -0.02082        4.23802        3.73183
H          7.07308        1.52891        2.95102
H          6.63694        0.67365        1.43412
H          6.25287       -0.04986        3.03207
