32
2-METHYL-3-ETHYLHEPTANE.gamout	Energy:    -394.0146819
C          4.08184        4.42771        1.03815
C          4.94694        3.27133        1.60376
C          6.40268        3.75325        1.90728
C          4.89510        2.04748        0.63974
C          2.55685        4.20781        1.07659
C          6.45129        4.80640        3.03191
C          7.37325        2.61078        2.25942
C          4.75751        0.67704        1.31800
C          1.92793        4.26634        2.47904
C          0.41314        4.02366        2.47638
H          4.39674        4.60679       -0.01571
H          4.30421        5.37247        1.57914
H          4.50873        2.95036        2.57960
H          6.77919        4.23195        0.97003
H          4.03816        2.17429       -0.05704
H          5.79790        2.05774       -0.01225
H          2.30043        3.23273        0.60098
H          2.06811        4.97860        0.43827
H          6.11416        4.36610        3.99640
H          5.81663        5.69176        2.82825
H          7.48761        5.17510        3.18377
H          8.38847        3.01179        2.46400
H          7.04503        2.07215        3.17545
H          7.47420        1.86427        1.44599
H          3.81669        0.61525        1.90602
H          5.59293        0.46822        2.01690
H          4.73551       -0.14468        0.57102
H          2.14487        5.25888        2.93605
H          2.41619        3.51935        3.14447
H         -0.11548        4.76685        1.84105
H          0.16518        3.01675        2.07621
H         -0.01723        4.09078        3.49714
