18
2-METHYL-2-PENTENE.gamout	Energy:    -235.6699810
C          2.91135        2.63450        1.95621
C          4.01225        1.88826        2.22537
C          1.46535        2.20624        1.94789
C          5.39564        2.49689        2.17410
C          3.98099        0.42251        2.59652
C          0.79021        2.38612        0.57394
H          3.08034        3.69740        1.69286
H          1.36490        1.15044        2.27630
H          0.90675        2.81457        2.69798
H          5.91346        2.40131        3.15548
H          5.37093        3.57216        1.90460
H          6.03929        1.97147        1.43249
H          4.58970       -0.17837        1.88400
H          4.43146        0.25874        3.60114
H          2.95900       -0.00181        2.61013
H          0.85214        3.43989        0.22719
H          1.27818        1.75527       -0.19846
H         -0.28472        2.10997        0.61104
