27
2-METHYLANTHRACENE.gamout	Energy:    -578.4248339
C          4.05010        1.41514        0.79856
C          3.28768        1.27749        2.09863
C          3.81613        1.73718        3.29874
C          1.99863        0.64099        2.11800
C          3.11879        1.59299        4.54369
C          1.28972        0.47857        3.29435
C          1.81638        0.94234        4.54542
C          3.65181        2.05813        5.76582
C          1.12281        0.79263        5.76492
C          2.95973        1.90825        6.98651
C          1.65697        1.25528        6.98636
C          3.49276        2.37724        8.23521
C          0.96271        1.10480        8.23452
C          2.79021        2.21429        9.41625
C          1.51189        1.56995        9.41622
H          3.39091        1.27069       -0.08069
H          4.86203        0.65807        0.72855
H          4.52888        2.41192        0.70812
H          4.80230        2.23178        3.31087
H          1.57180        0.27605        1.16917
H          0.30357       -0.01392        3.28390
H          4.63793        2.55232        5.76751
H          0.13672        0.29842        5.76309
H          4.47741        2.87290        8.23576
H         -0.02108        0.60757        8.23263
H          3.21397        2.58159       10.36451
H          0.96596        1.44461       10.36484
