27
2-METHYL-1-OCTENE.gamout	Energy:    -353.5106612
C          2.55037        1.29306        0.97323
C          3.96618        1.48254        1.56860
C          4.43270        2.94228        1.68505
C          1.42502        1.93847        1.77758
C          5.84698        3.12338        2.26779
C          0.86863        3.24167        1.25342
C          0.95102        1.36127        2.90317
C          6.99506        2.60800        1.38262
C          8.38353        2.87412        1.97708
H          2.35467        0.20195        0.88866
H          2.53693        1.69048       -0.06659
H          3.99470        1.01463        2.57907
H          4.68220        0.90675        0.94056
H          4.38454        3.42478        0.68020
H          3.71388        3.49679        2.32814
H          5.90200        2.62372        3.26358
H          6.01348        4.20646        2.46794
H          1.66757        4.00629        1.13373
H          0.42542        3.10173        0.24164
H          0.08467        3.66103        1.91576
H          1.34759        0.39753        3.26491
H          0.15235        1.83014        3.50132
H          6.91912        3.08519        0.37831
H          6.87700        1.51516        1.20743
H          8.56032        3.96104        2.12810
H          8.50033        2.38277        2.96704
H          9.19370        2.49394        1.32035
