17
2-METHYLBUTYRIC_ACID.gamout	Energy:    -346.7698324
C         51.82139       30.89562        0.18053
C         50.62306       30.01988       -0.18125
C         49.30079       30.79531       -0.03436
C         50.82596       29.47642       -1.61448
O         52.88335       30.14874        0.59596
O         51.87872       32.10879        0.08167
C         48.95855       31.19488        1.40545
H         50.63282       29.15513        0.51846
H         49.36162       31.70154       -0.67520
H         48.48604       30.16470       -0.45322
H         49.99385       28.79526       -1.88764
H         51.77546       28.91133       -1.70322
H         50.84476       30.30560       -2.35196
H         53.61093       30.79277        0.75125
H         47.98648       31.72769        1.45277
H         48.88332       30.30625        2.06847
H         49.72642       31.87340        1.83074
