20
2-METHYL-5-ETHYLPYRIDINE.gamout	Energy:    -365.9620115
C          1.79266        2.17969       -0.93129
C          2.71308        1.67487        0.19750
C          2.97456        0.18421        0.13556
C          3.96773       -0.37352       -0.69421
C          2.20694       -0.73406        0.88748
C          4.14005       -1.76484       -0.73711
N          2.35813       -2.06543        0.85652
C          3.31050       -2.58969        0.05446
C          3.44315       -4.09505        0.05582
H          1.62771        3.27473       -0.85437
H          2.22829        1.97113       -1.93083
H          0.80134        1.68200       -0.89195
H          2.25890        1.92491        1.18081
H          3.68172        2.21993        0.15442
H          4.61197        0.28157       -1.30551
H          1.41894       -0.34970        1.56540
H          4.91660       -2.21094       -1.37904
H          3.69116       -4.46012        1.07466
H          2.47700       -4.56600       -0.22211
H          4.22468       -4.44695       -0.64565
