16
2-METHYLTHIACYCLOPENTANE.gamout	Energy:    -594.5172039
C          2.33378       -0.92703        5.12368
C          1.81632        0.20149        4.23079
C          2.05714       -0.00621        2.72435
S          2.64260        1.83311        4.63503
C          1.96258        1.36814        2.04878
C          2.86614        2.31118        2.85812
H          2.14475       -0.71960        6.19697
H          3.42679       -1.06745        4.99116
H          1.82150       -1.88179        4.87381
H          0.72728        0.34102        4.41193
H          3.07376       -0.43436        2.57392
H          1.32818       -0.73434        2.30617
H          2.26486        1.33601        0.97966
H          0.91269        1.73235        2.08491
H          2.59802        3.37989        2.73236
H          3.93380        2.18903        2.57628
