18
2-METHYLBENZOFURAN.gamout	Energy:    -422.6924717
C         -1.84744        1.07963       -1.92759
C         -2.97099        0.63657       -1.05528
C         -3.19337       -0.50615       -0.32234
O         -4.02592        1.52416       -0.92867
C         -4.47918       -0.34326        0.31939
C         -4.94387        0.93459       -0.09575
C         -5.28905       -1.11212        1.18552
C         -6.16739        1.48138        0.30607
C         -6.51966       -0.58095        1.59964
C         -6.95383        0.69639        1.16730
H         -2.19548        1.27183       -2.96530
H         -1.39511        2.02328       -1.55358
H         -1.05998        0.30318       -1.96087
H         -2.51392       -1.36367       -0.25183
H         -4.96149       -2.10644        1.52763
H         -6.49056        2.47487       -0.03842
H         -7.16339       -1.16685        2.27457
H         -7.92574        1.08257        1.51220
