13
2-METHYL-1,3-BUTADIENE.gamout	Energy:    -195.1526783
C          1.84456        2.17577        1.06677
C          3.27492        2.13075        1.46101
C          4.00822        0.86197        1.07819
C          3.90401        3.13713        2.11674
C          0.95456        3.17090        1.27539
H          1.48434        1.27274        0.53877
H          3.98333        0.70179       -0.02224
H          3.52954       -0.03030        1.53873
H          5.06894        0.88434        1.39728
H          4.96849        3.06072        2.39014
H          3.38513        4.06626        2.40243
H          1.22555        4.10627        1.79302
H         -0.08742        3.08085        0.93085
