27
2-METHYL-1-HEPTANOL.gamout	Energy:    -390.6147419
O          2.84308        1.32695        5.41706
C          1.08763        1.17932        2.06169
C          2.21991        1.06541        3.10539
C         -0.15823        0.30930        2.29618
C         -1.19947        0.42659        1.17253
C          1.76067        1.48868        4.50776
C          3.45526        1.87119        2.66828
C         -2.45113       -0.44099        1.37912
C         -3.48171       -0.31125        0.25057
H          1.51767        0.91831        1.06776
H          0.78276        2.24944        1.97460
H          2.51796       -0.00716        3.18264
H          0.15224       -0.75635        2.40148
H         -0.64325        0.57618        3.26219
H         -0.72370        0.15880        0.20014
H         -1.50574        1.49372        1.06688
H          1.40979        2.55399        4.46450
H          0.87919        0.87421        4.81683
H          4.27716        1.76256        3.40218
H          3.81984        1.53555        1.67498
H          3.21295        2.95418        2.58867
H         -2.14269       -1.50652        1.48362
H         -2.92574       -0.17304        2.35098
H         -3.04737       -0.60809       -0.72829
H         -4.37084       -0.95074        0.42960
H         -3.83779        0.73638        0.14784
H          2.54695        1.64370        6.28903
