18
2-METHYL-1-PENTENE.gamout	Energy:    -235.6658576
C          2.66588        2.21746        3.06019
C          2.15138        1.39576        1.89022
C          3.15455        1.39497        4.27700
C          0.88825        0.59801        2.12630
C          2.78270        1.38991        0.69573
C          4.35748        0.49205        3.97984
H          3.49331        2.87022        2.70586
H          1.85214        2.89734        3.40465
H          2.31575        0.78395        4.67963
H          3.41783        2.10972        5.08835
H          1.01210       -0.12967        2.95794
H          0.04965        1.26662        2.42508
H          0.57754        0.03598        1.22348
H          2.40704        0.79619       -0.15460
H          3.69963        1.97889        0.52558
H          4.12267       -0.26081        3.19791
H          5.22343        1.08350        3.61206
H          4.68668       -0.05493        4.88778
