61
2-MONOPALMITIN.gamout	Energy:   -1047.0352530
O         -6.99494        0.15951       -0.36440
C         -8.29137       -0.29090        0.09804
C         -5.92583       -0.09586        0.44165
C         -8.56717       -1.70691       -0.44741
C         -9.33546        0.73024       -0.35212
C         -4.66464        0.55648       -0.09788
O         -5.99802       -0.73938        1.47518
O         -9.77605       -2.24712        0.06461
O         -9.22162        1.99120        0.28531
C         -3.38612       -0.23084        0.22225
C         -2.10029        0.56430       -0.04883
C         -0.81464       -0.25261        0.15330
C          0.47392        0.56235       -0.03808
C          1.76286       -0.25886        0.11888
C          3.04913        0.56279       -0.05820
C          4.34034       -0.25598        0.09243
C          5.62505        0.56932       -0.07816
C          6.91761       -0.24732        0.07270
C          8.20124        0.58060       -0.09259
C          9.49486       -0.23451        0.05744
C         10.77748        0.59514       -0.10495
C         12.07320       -0.21765        0.04591
C         13.34698        0.62142       -0.11611
H         -8.25556       -0.34898        1.21071
H         -7.68362       -2.35116       -0.22925
H         -8.67973       -1.66435       -1.55255
H        -10.33726        0.25704       -0.21325
H         -9.20597        0.91538       -1.44042
H         -4.61851        1.56436        0.37740
H         -4.78457        0.74171       -1.18515
H         -9.62151       -2.46663        1.00313
H         -9.49190        1.87396        1.21534
H         -3.37892       -1.17229       -0.37222
H         -3.42388       -0.54579        1.28744
H         -2.07934        1.45746        0.61767
H         -2.11817        0.96645       -1.08836
H         -0.81465       -1.11529       -0.55207
H         -0.81936       -0.70052        1.17385
H          0.48436        1.40513        0.69123
H          0.46236        1.04013       -1.04529
H          1.75737       -1.09778       -0.61497
H          1.77076       -0.74217        1.12343
H          3.05545        1.39748        0.68058
H          3.03823        1.05233       -1.05977
H          4.33730       -1.08959       -0.64759
H          4.34886       -0.74705        1.09327
H          5.62809        1.40161        0.66340
H          5.61546        1.06237       -1.07803
H          6.91762       -1.07886       -0.66969
H          6.92468       -0.74136        1.07212
H          8.20182        1.41032        0.65187
H          8.19251        1.07732       -1.09067
H          9.49623       -1.06458       -0.68666
H          9.50175       -0.73060        1.05591
H         10.77629        1.42437        0.64041
H         10.77012        1.09325       -1.10259
H         12.07334       -1.04660       -0.69830
H         12.07695       -0.71371        1.04351
H         13.39190        1.09917       -1.11846
H         14.26333        0.00659        0.00222
H         13.39176        1.43642        0.63793
