20
2-NAPHTHYLAMINE.gamout	Energy:    -440.9317379
N          8.05997        2.52444       -0.10330
C          6.91557        1.81638        0.24732
C          6.84258        1.18238        1.53360
C          5.79669        1.75192       -0.59437
C          5.69692        0.51784        1.93680
C          4.54354        0.44096        1.09647
C          3.35015       -0.23656        1.48599
C          4.60497        1.08008       -0.20032
C          2.24898       -0.29015        0.63897
C          2.30602        0.33715       -0.63767
C          3.45361        1.00474       -1.04713
H          8.18049        2.73570       -1.09546
H          8.92947        2.24766        0.35582
H          7.71566        1.23406        2.20534
H          5.83242        2.23268       -1.58662
H          5.66460        0.03597        2.92783
H          3.31474       -0.71996        2.47652
H          1.33327       -0.81626        0.95185
H          1.43079        0.29241       -1.30585
H          3.49256        1.48837       -2.03711
