19
2-NAPHTHOL.gamout	Energy:    -460.7810743
C          5.88980        0.64258        3.28824
O          7.13860        0.73288        3.83256
C          4.72952        0.49847        4.04741
C          5.80987        0.70302        1.86301
C          3.45063        0.40950        3.42062
C          4.57937        0.61875        1.23313
C          3.36766        0.47068        1.97782
C          2.24142        0.26147        4.16812
C          2.08821        0.38182        1.35193
C          1.01123        0.17791        3.52722
C          0.93048        0.23832        2.10764
H          7.05619        0.67902        4.80437
H          4.79066        0.45189        5.14884
H          6.74314        0.81722        1.29112
H          4.52531        0.66604        0.13322
H          2.29776        0.21434        5.26808
H          2.03414        0.42923        0.25183
H          0.09060        0.06395        4.12171
H         -0.05035        0.17125        1.61134
