27
2-OCTANOL.gamout	Energy:    -390.6215048
H          0.37904       -4.71960        1.39900
H         -0.87580       -3.86857       -1.27484
H          0.23775       -7.05853        0.46086
H         -1.39517       -6.35521        0.66811
H         -0.64957       -6.43309       -0.97031
O          1.41325       -4.75529       -0.42869
H          2.02824       -5.42496       -0.07599
C         -0.44277       -6.25430        0.10576
C         -1.29822        1.33613       -0.86024
H         -1.72291       -3.85104        0.29398
C          0.18829       -4.87042        0.30362
C         -0.46192        0.20545       -0.24026
H         -0.05774       -2.17963        1.19145
H         -0.66997        2.96144        0.48169
C         -1.02285       -1.20107       -0.49809
H          0.57978        0.26079       -0.63330
H         -0.37461        0.37321        0.85884
C         -0.16502       -2.33018        0.09184
H         -2.05972       -1.26563       -0.09276
H         -1.12390       -1.35732       -1.59749
C         -0.72242       -3.73460       -0.17925
H          0.86349       -2.27801       -0.32626
C         -0.72681        2.73612       -0.60520
H          0.30077        2.83441       -1.01644
H         -1.34955        3.52645       -1.07421
H         -1.38330        1.16479       -1.95790
H         -2.33957        1.27885       -0.46858
