16
2-PENTANONE.gamout	Energy:    -271.5758719
O          1.22040       -1.26573        0.01158
C         -1.46229       -0.39885        0.00478
C         -0.30150        0.60000        0.00064
C         -2.84201        0.26885        0.00097
C          1.08225       -0.05117        0.00451
C          2.27931        0.89107       -0.00093
H         -0.35737        1.27838       -0.88358
H         -0.35812        1.28695        0.87817
H         -1.35390       -1.07097       -0.87330
H         -1.35493       -1.06328        0.88883
H         -2.98711        0.90798       -0.89665
H         -2.98844        0.91567        0.89283
H         -3.65298       -0.48783        0.00358
H          2.25427        1.56031        0.88565
H          2.25465        1.54920       -0.89580
H          3.21569        0.30363        0.00293
