18
2-PENTANOL.gamout	Energy:    -272.7707586
C          2.23107        1.76158        3.03733
C          1.61429        2.58618        1.89182
C          1.00484        1.75300        0.75487
C          3.42785        0.85412        2.68542
C          4.64382        1.61718        2.14360
O          3.78525        0.05130        3.81545
H          1.45465        1.10898        3.49506
H          2.55815        2.46009        3.84451
H          2.37927        3.28026        1.47665
H          0.82849        3.24530        2.32281
H          0.21374        1.07096        1.13320
H          1.76579        1.12498        0.24522
H          0.54603        2.40344       -0.01822
H          3.10555        0.11096        1.92198
H          4.97186        2.39732        2.86685
H          4.42698        2.12529        1.18098
H          5.48962        0.91827        1.98629
H          4.05063        0.67016        4.52420
