25
2-PHENYLBUTAN-1-OL.gamout	Energy:    -464.3643564
O         -1.06334       -3.06899        0.28770
C         -1.34557       -0.68874        0.48828
C         -2.13029        0.41811        1.23063
C          0.14815       -0.40060        0.36279
C         -1.60279       -2.06389        1.13075
C         -2.04529        1.79861        0.56964
C          0.78667       -0.45079       -0.89444
C          0.93703       -0.10162        1.49633
C          2.16477       -0.20553       -1.02121
C          2.31511        0.14482        1.37631
C          2.93526        0.09459        0.11504
H         -1.75236       -0.75733       -0.54658
H         -1.77422        0.48794        2.28362
H         -3.19643        0.10473        1.29678
H         -2.70764       -2.18931        1.27047
H         -1.14584       -2.08373        2.15305
H         -0.99924        2.16723        0.53169
H         -2.64754        2.54798        1.12409
H         -2.42380        1.77240       -0.47468
H          0.18684       -0.68906       -1.78803
H          0.46885       -0.05611        2.49392
H          2.63885       -0.25039       -2.01500
H          2.90890        0.37883        2.27477
H          4.01519        0.29036        0.01959
H         -1.10214       -3.91513        0.76869
