18
2-PROPYLTHIOPHENE.gamout	Energy:    -670.6647077
S          2.74839       -1.53690       -0.74224
C          1.80913       -1.38868        1.92685
C          2.63954       -0.89409        3.13143
C          2.10445       -0.66888        0.63353
C          2.32075       -1.64786        4.42794
C          1.95315        0.67507        0.32122
C          2.35321        0.99791       -1.01572
C          2.80834       -0.10273       -1.71850
H          0.72487       -1.28572        2.16407
H          1.97956       -2.47923        1.79186
H          3.72049       -0.99083        2.88746
H          2.46185        0.19471        3.27484
H          2.52646       -2.73519        4.32658
H          2.92850       -1.27175        5.27666
H          1.25107       -1.54078        4.70933
H          1.55956        1.41272        1.03671
H          2.30565        2.00845       -1.44780
H          3.17252       -0.14915       -2.75289
