32
3,3,4-TRIMETHYLHEPTANE.gamout	Energy:    -394.0122697
C          5.57560        2.04857        2.48272
C          4.09630        1.83943        2.02659
C          6.41089        0.78882        2.75730
C          3.39061        0.88676        3.02020
C          4.06856        1.20985        0.61486
C          3.36088        3.24096        2.03816
C          1.89756        3.17705        1.52633
C          4.12055        4.35122        1.28382
C          0.62962        4.30117        3.48950
C          0.97647        4.32404        1.99399
H          6.09988        2.64753        1.70735
H          5.56894        2.68051        3.40057
H          6.43022        0.09998        1.88629
H          7.46421        1.06396        2.97436
H          6.04037        0.21186        3.62972
H          3.40843        1.29739        4.05309
H          3.88134       -0.10770        3.04382
H          2.33028        0.71172        2.74708
H          4.60369        0.23730        0.60008
H          4.55391        1.86460       -0.13931
H          3.03203        1.01037        0.27290
H          3.33044        3.53612        3.11384
H          1.90742        3.16324        0.41333
H          1.42484        2.21834        1.83221
H          4.29811        4.07436        0.22238
H          3.53370        5.29281        1.27808
H          5.10113        4.59044        1.74064
H          1.53438        4.38431        4.12815
H         -0.03999        5.14397        3.76092
H          0.11198        3.35909        3.77143
H          1.43095        5.30687        1.73530
H          0.03453        4.27355        1.40375
