32
3,3,4,4-TETRAMETHYLHEXANE.gamout	Energy:    -394.0058615
C          3.14154        2.42945        1.80530
C          4.56515        2.08589        2.47402
C          5.67282        2.01792        1.37160
C          4.96938        3.17506        3.49981
C          4.50227        0.73123        3.22287
C          2.12026        2.85201        2.91126
C          2.59120        1.19993        1.03989
C          3.27299        3.59534        0.79346
C          7.03012        1.42685        1.78460
C          0.64350        2.94461        2.49607
H          5.29285        1.42699        0.50835
H          5.84498        3.04475        0.98379
H          4.31197        3.17340        4.39193
H          4.94268        4.19361        3.05853
H          6.00335        3.00274        3.86460
H          4.42697       -0.13279        2.53089
H          5.41256        0.57898        3.83840
H          3.63727        0.68154        3.91693
H          2.42715        3.84030        3.31618
H          2.19281        2.13992        3.76289
H          2.26578        0.38808        1.72247
H          1.71353        1.48184        0.42300
H          3.34852        0.77636        0.34841
H          2.27294        3.91136        0.43049
H          3.75552        4.48921        1.24194
H          3.85942        3.30565       -0.10142
H          6.96039        0.35377        2.05740
H          7.48182        1.96185        2.64672
H          7.75215        1.50163        0.94466
H          0.48490        3.63468        1.64025
H          0.21828        1.95967        2.21339
H          0.03212        3.33096        3.33850
