21
3,3-DIMETHYL-2-BUTANOL.gamout	Energy:    -312.0539779
C         -1.39868        1.28132       -0.48577
C         -0.67121        0.02244        0.03239
C          0.81509        0.01039       -0.47762
C          1.66022        1.22988       -0.08531
O          1.49029       -1.19732       -0.11214
C         -0.71808       -0.01051        1.57472
C         -1.37515       -1.23497       -0.52345
H         -1.31682        1.36818       -1.59096
H         -2.48022        1.23656       -0.23650
H         -0.99757        2.21496       -0.03967
H          0.76292       -0.02970       -1.59010
H          1.75561        1.32439        1.01869
H          2.68162        1.11832       -0.50190
H          1.23697        2.18051       -0.46802
H          1.69014       -1.13494        0.84207
H         -1.76617       -0.06301        1.93780
H         -0.19515       -0.90593        1.97530
H         -0.25800        0.89195        2.02961
H         -1.42035       -1.20940       -1.63358
H         -0.82343       -2.15090       -0.23343
H         -2.41622       -1.30843       -0.14405
