29
3,3-DIMETHYLHEPTANE.gamout	Energy:    -354.7375154
C          3.27782        1.80342        3.78390
C          4.77792        1.97378        4.17139
C          5.66156        1.13145        3.20335
C          4.92845        1.45666        5.62078
C          5.18091        3.46527        4.12428
C          2.82588        2.26087        2.38758
C          7.16840        1.09011        3.49542
C          1.31861        2.05246        2.15632
C          0.83957        2.49149        0.76787
H          3.01676        0.72578        3.90409
H          2.66716        2.34433        4.54419
H          5.26567        0.08947        3.19780
H          5.51460        1.51600        2.16975
H          4.24873        2.00517        6.30750
H          5.95991        1.58453        6.01048
H          4.67211        0.37734        5.68795
H          4.49129        4.08223        4.73975
H          5.16175        3.86998        3.09051
H          6.20452        3.62178        4.52355
H          3.38577        1.70942        1.59872
H          3.06608        3.33770        2.23638
H          7.69777        0.48222        2.73213
H          7.39469        0.63877        4.48368
H          7.62423        2.10225        3.47727
H          1.07542        0.97656        2.31307
H          0.75066        2.60542        2.93935
H          1.03491        3.57138        0.59186
H         -0.25046        2.32653        0.63738
H          1.35833        1.92950       -0.03867
