23
3,3-DIMETHYLPENTANE.gamout	Energy:    -276.1729429
C          3.31210        2.63214        2.53141
C          2.45073        1.67211        1.65849
C          1.63355        0.66960        2.52609
C          1.50238        2.53707        0.79790
C          3.35650        0.84874        0.71446
C          4.32635        1.99195        3.48912
C          0.68226        1.26174        3.57491
H          2.63001        3.28763        3.11836
H          3.85200        3.32066        1.84151
H          2.34405       -0.02122        3.03409
H          1.04763        0.02317        1.83337
H          0.84161        1.90669        0.16510
H          0.85511        3.18842        1.42151
H          2.08373        3.20023        0.12268
H          2.74577        0.20099        0.05026
H          3.97596        1.50604        0.06703
H          4.04382        0.18553        1.28009
H          3.83711        1.35707        4.25757
H          5.06848        1.35914        2.95899
H          4.89664        2.77537        4.03070
H          1.21875        1.85034        4.34839
H         -0.07945        1.92919        3.12013
H          0.13299        0.45452        4.10302
