16
3,3-DIMETHYL-1-BUTYNE.gamout	Energy:    -234.4104338
C          3.28840        1.92996        1.22826
C          1.93825        1.98518        1.82577
C          1.39816        3.43665        1.72863
C          2.01667        1.55400        3.31450
C          0.99777        1.02315        1.05232
C          4.40569        1.88354        0.72993
H          1.33615        3.76708        0.67179
H          0.38187        3.49779        2.17243
H          2.05770        4.14393        2.27141
H          1.00543        1.59098        3.77157
H          2.40536        0.51989        3.41045
H          2.68472        2.22637        3.89022
H          0.93062        1.30724       -0.01759
H          1.36391       -0.02209        1.10791
H         -0.02364        1.05834        1.48673
H          5.39220        1.84264        0.28975
