32
3,4,5-TRIMETHYLHEPTANE.gamout	Energy:    -394.0141301
C          0.92146        1.14631        0.47520
C          1.32101        0.96591        1.94593
C          2.72282        1.50201        2.32974
C          2.87104        3.04656        2.14135
C          3.10917        1.02636        3.74258
C          4.35264        3.54944        2.18685
C          1.97110        3.83317        3.11915
C          4.44376        5.05846        1.84455
C          5.28811        2.72862        1.27926
C          5.82932        5.69577        2.02474
H          1.67500        0.69774       -0.20776
H         -0.05170        0.65622        0.26362
H          0.81388        2.21470        0.19314
H          1.29807       -0.11941        2.19223
H          0.54733        1.42751        2.60108
H          3.42980        1.02482        1.61498
H          2.51190        3.26719        1.10773
H          2.39728        1.39912        4.50981
H          4.12293        1.36850        4.03753
H          3.10292       -0.08243        3.80119
H          4.71501        3.43685        3.23776
H          1.78472        4.86974        2.77484
H          2.42467        3.89717        4.13176
H          0.97646        3.35573        3.23486
H          4.09980        5.20584        0.79354
H          3.72393        5.62026        2.47551
H          5.38341        1.67482        1.60882
H          6.31339        3.15074        1.27059
H          4.92253        2.72191        0.22846
H          5.78742        6.79168        1.85285
H          6.21845        5.53741        3.05412
H          6.58310        5.28758        1.32002
