24
3,4-DIMETHYL-CIS-3-HEXENE.gamout	Energy:    -314.2326079
C          4.41761        3.22577        1.12903
C          5.41877        3.37392        2.29231
C          3.11208        3.98349        1.34639
C          1.99604        3.38806        1.85843
C          3.19405        5.44476        0.95961
C          1.95303        1.91001        2.23427
C          0.68241        4.10156        2.09659
C          1.37052        1.00833        1.12756
H          4.89732        3.60291        0.19713
H          4.22679        2.14864        0.94432
H          5.01368        2.93985        3.23029
H          6.37931        2.86360        2.06770
H          5.65122        4.44003        2.49852
H          3.29535        5.55731       -0.14409
H          2.32321        6.04654        1.28047
H          4.10049        5.91852        1.39748
H          1.33030        1.79641        3.15087
H          2.95923        1.53914        2.51883
H          0.47360        4.19089        3.18736
H          0.62893        5.11706        1.66096
H         -0.16476        3.51752        1.67340
H          1.29578       -0.04772        1.46284
H          0.35166        1.33413        0.82899
H          2.00238        1.03254        0.21513
