32
3,4-BENZOPYRENE.gamout	Energy:    -768.8588598
C          5.19558        2.90863        0.85717
C          4.23466        1.86027        0.85393
C          5.39474        3.65448        2.00907
C          3.49411        1.57863        1.99674
C          3.66910        2.32293        3.20178
C          4.64831        3.38868        3.20083
C          2.91582        2.06005        4.41389
C          4.85793        4.15715        4.37838
C          4.14223        3.91775        5.55481
C          3.15480        2.85510        5.58088
C          4.35849        4.70077        6.75052
C          2.41938        2.61040        6.79082
C          1.92601        1.02200        4.49708
C          2.66026        3.41042        7.96520
C          1.43511        1.56297        6.83905
C          3.65219        4.46005        7.90092
C          1.92335        3.14712        9.13991
C          1.21656        0.78232        5.65518
C          0.71837        1.33614        8.04413
C          0.96216        2.11919        9.17725
H          5.77689        3.12376       -0.05331
H          4.07613        1.26749       -0.06085
H          6.13598        4.47008        2.02672
H          2.75867        0.76129        1.96274
H          5.60873        4.96463        4.35734
H          5.11238        5.50400        6.71442
H          1.72418        0.39769        3.61459
H          3.83019        5.06692        8.80366
H          2.11006        3.76030       10.03651
H          0.46374       -0.02218        5.68581
H         -0.03460        0.53194        8.07424
H          0.39926        1.93214       10.10544
