21
3,4-DIMETHYL-CIS-2-PENTENE.gamout	Energy:    -274.9463207
C          3.62472        2.24629        1.87663
C          2.13596        1.88334        1.74449
C          1.15856        2.70277        1.28188
C          1.79161        0.47650        2.18494
C          3.88505        3.36822        2.90584
C          4.30301        2.52994        0.51807
C          1.24374        4.12434        0.79276
H          4.12615        1.33852        2.28232
H          0.13663        2.27669        1.25327
H          2.06842        0.30760        3.25066
H          0.71085        0.25487        2.07338
H          2.35965       -0.27915        1.59579
H          4.97554        3.51060        3.06554
H          3.46547        4.34160        2.57946
H          3.42918        3.12307        3.88779
H          3.91632        3.45326        0.03992
H          5.39969        2.65487        0.64660
H          4.13895        1.69462       -0.19409
H          2.26541        4.54601        0.82505
H          0.87947        4.20483       -0.25610
H          0.58676        4.79023        1.39642
