19
3,4-DIMETHYL-1-PENTYNE.gamout	Energy:    -273.6923210
C          0.98630        0.06847        0.06251
C          2.21054        0.06529        0.03556
C          3.68155        0.09121        0.03768
C          4.24484        0.76155       -1.26117
C          5.78211        0.81316       -1.26022
C          3.73024        0.05094       -2.52372
C          4.19126        0.74590        1.34371
H         -0.09462        0.06402        0.08317
H          4.03086       -0.97058        0.02884
H          3.85847        1.80765       -1.26913
H          6.21559       -0.20643       -1.16167
H          6.19116        1.43690       -0.44034
H          6.15600        1.23940       -2.21448
H          4.10204       -0.99656       -2.56793
H          4.08155        0.56731       -3.44120
H          2.62259        0.01746       -2.55171
H          3.94751        1.82867        1.36212
H          5.28840        0.63235        1.44919
H          3.71452        0.27712        2.22746
