27
3,5-DIETHYLTOLUENE.gamout	Energy:    -428.5003877
C          7.50593        5.64526        1.95593
C          6.64998        5.12389        0.78510
C          5.51432        4.21966        1.23033
C          4.24403        4.75041        1.53378
C          5.71907        2.83412        1.39845
C          3.19304        3.93236        1.99877
C          4.69325        1.98375        1.86029
C          1.81909        4.51683        2.27586
C          3.43743        2.55314        2.15935
C          4.92443        0.49528        2.00638
C          0.89628        4.50561        1.04147
H          6.89139        6.22946        2.67255
H          8.32472        6.30277        1.59448
H          7.96636        4.80825        2.52147
H          7.30169        4.57286        0.07215
H          6.23321        5.98846        0.22384
H          4.06805        5.83349        1.40836
H          6.70907        2.40448        1.16537
H          1.93120        5.56097        2.64121
H          1.33688        3.94727        3.10008
H          2.62544        1.90277        2.52924
H          5.99534        0.26057        2.17364
H          4.60982       -0.05248        1.09011
H          4.34486        0.07034        2.85165
H         -0.09873        4.93855        1.27751
H          1.33473        5.09349        0.20817
H          0.73774        3.47206        0.66849
