24
3,5-DIMETHYL-CIS-2-HEXENE.gamout	Energy:    -314.2334422
C          1.49664        0.74718        1.40630
C          2.69178        0.29802        0.61130
C          3.01031       -0.96985        0.24596
C          2.14659       -2.17531        0.59511
C          0.88830       -2.38843       -0.29402
C          1.23169       -2.53609       -1.78528
C          0.07968       -3.59577        0.20944
C          4.27880       -1.25815       -0.52493
H          0.81449        1.38192        0.79639
H          1.80367        1.37495        2.27235
H          0.89735       -0.09838        1.79921
H          3.38591        1.10258        0.30134
H          1.80696       -2.10190        1.65213
H          2.76865       -3.09782        0.54042
H          0.25207       -1.47964       -0.18645
H          1.89049       -3.41510       -1.96203
H          1.74971       -1.63667       -2.17773
H          0.31409       -2.68280       -2.39310
H          0.67029       -4.53433        0.12276
H         -0.85273       -3.73456       -0.37753
H         -0.20773       -3.48187        1.27632
H          4.83761       -0.33289       -0.77362
H          4.06845       -1.79746       -1.47494
H          4.95712       -1.92064        0.05945
