24
3,5-DIMETHYL-TRANS-2-HEXENE.gamout	Energy:    -314.2330225
C          0.55620        0.44447        0.41047
C          2.05391        0.55276        0.47026
C          2.93111        0.75774       -0.54475
C          4.42849        0.80734       -0.24957
C          5.11396       -0.57106       -0.03892
C          4.96169       -1.50232       -1.25232
C          6.59494       -0.38409        0.33138
C          2.53247        0.96198       -1.98787
H          0.07027        1.23702        1.02324
H          0.20758       -0.52441        0.83367
H          0.15074        0.52301       -0.61781
H          2.48520        0.45310        1.48599
H          4.59994        1.41761        0.66491
H          4.95616        1.33769       -1.07540
H          4.60101       -1.05573        0.82440
H          5.42893       -1.05839       -2.15936
H          3.89560       -1.70685       -1.48201
H          5.45557       -2.48058       -1.07153
H          7.15710        0.09430       -0.50061
H          7.08480       -1.35744        0.54626
H          6.71634        0.25930        1.22850
H          1.44462        0.85481       -2.16635
H          3.05785        0.24576       -2.65667
H          2.83184        1.97768       -2.33204
