24
3,5-DIMETHYL-1-HEXENE.gamout	Energy:    -314.2242293
C          0.50042       -0.09445       -0.52189
C          1.61340        0.79547        0.06036
C          1.26370        2.30479        0.02941
C          1.95324        0.35222        1.49518
C          1.48586        3.06141       -1.30617
C          0.57084        2.61389       -2.42375
C          1.31599        4.58232       -1.08443
C          0.95565        2.21059       -3.64896
H          0.79248       -1.16603       -0.50131
H         -0.43471        0.00486        0.07296
H          0.26367        0.16928       -1.57130
H          2.52852        0.65068       -0.56252
H          0.20582        2.44421        0.35710
H          1.88248        2.82156        0.79720
H          2.81156        0.92057        1.91272
H          2.21289       -0.72688        1.53717
H          1.08695        0.50943        2.17542
H          2.53686        2.87825       -1.63104
H         -0.51318        2.67504       -2.19937
H          1.52020        5.15003       -2.01506
H          2.00561        4.95124       -0.29567
H          0.27982        4.82676       -0.76363
H          0.22123        1.93583       -4.42328
H          2.02268        2.13893       -3.92343
