19
3,5-XYLENOL.gamout	Energy:    -385.8198399
C          1.95548        1.81907        1.05987
C          0.65031        1.05907        0.95509
C          3.18997        1.12992        1.01702
C          1.96221        3.21998        1.17613
C          4.41782        1.81550        1.08259
C          3.18364        3.92328        1.24290
C          5.73479        1.06991        1.04358
C          4.40374        3.22321        1.19569
O          3.12071        5.28456        1.35613
H         -0.19769        1.64101        1.36869
H          0.40613        0.82705       -0.10515
H          0.70062        0.09176        1.49602
H          3.19185        0.03039        0.93123
H          1.02331        3.79396        1.21803
H          6.38602        1.43951        0.22281
H          6.30351        1.19943        1.98998
H          5.58147       -0.01675        0.89066
H          5.35565        3.78128        1.25160
H          4.03225        5.63162        1.39483
