10
3-BUTENENITRILE.gamout	Energy:    -209.9811770
N         -2.26752        0.45692       -0.00821
C          0.05628       -0.79805       -0.11147
C          1.19454        0.03544        0.44795
C          2.27096        0.41151       -0.26209
C         -1.24147       -0.10691       -0.05777
H         -0.04877       -1.74686        0.46353
H          0.26137       -1.08585       -1.16529
H          1.09807        0.32833        1.50858
H          3.07652        1.00862        0.19397
H          2.39016        0.13861       -1.32475
