24
3-ETHYL-1-HEXENE.gamout	Energy:    -314.2258367
C          0.21348        0.02795        0.26414
C          1.48721        0.84483        0.01855
C          1.25409        2.36337        0.05349
C          2.52659        3.21748       -0.17359
C          3.09779        2.98141       -1.55383
C          2.26183        4.73477        0.03006
C          4.32919        2.51801       -1.83606
C          1.88830        5.14741        1.45972
H          0.41377       -1.06345        0.23417
H         -0.23545        0.25595        1.25527
H         -0.56170        0.24359       -0.50273
H          1.93171        0.56313       -0.96175
H          2.25445        0.58032        0.78197
H          0.80131        2.63354        1.03362
H          0.49619        2.64140       -0.71711
H          3.29400        2.90393        0.57386
H          2.41943        3.23738       -2.39293
H          3.17821        5.28497       -0.27711
H          1.46295        5.05748       -0.67706
H          4.67550        2.39041       -2.87454
H          5.03967        2.25041       -1.03447
H          1.78969        6.25000        1.54078
H          0.92373        4.71066        1.79293
H          2.66562        4.82967        2.18769
