29
3-ETHYL-2-METHYLHEXANE.gamout	Energy:    -354.7328236
C          2.70562        1.12566        2.76046
C          4.15352        1.60200        3.04841
C          5.17215        1.25546        1.90834
C          4.24185        3.07795        3.50427
C          1.92079        1.79658        1.61973
C          5.26981        2.29688        0.77569
C          6.57621        0.97765        2.48162
C          3.46081        3.40960        4.78350
C          0.46703        1.30849        1.53914
H          2.73551        0.02773        2.57004
H          2.11101        1.23247        3.69668
H          4.47809        0.98808        3.92211
H          4.81641        0.30172        1.45163
H          3.90081        3.74861        2.68469
H          5.31298        3.33343        3.66515
H          1.92822        2.90227        1.74804
H          2.42095        1.60116        0.64628
H          5.92570        1.92219       -0.03883
H          5.71270        3.25019        1.13427
H          4.28625        2.53575        0.32483
H          6.99620        1.87711        2.98286
H          7.28888        0.68871        1.68055
H          6.55842        0.15626        3.22880
H          3.62825        4.46228        5.09358
H          3.77190        2.76020        5.63057
H          2.36605        3.27952        4.65377
H         -0.08390        1.79223        0.70576
H         -0.08674        1.52838        2.47732
H          0.41768        0.20983        1.37897
