24
3-ETHYL-TRANS-2-HEXENE.gamout	Energy:    -314.2330186
C          0.75070        0.73407       -2.11781
C          2.19928        0.39729       -1.89940
C          3.24876        1.24079       -1.72962
C          4.64628        0.67292       -1.49766
C          4.94061        0.17532       -0.05518
C          6.34430       -0.45042        0.01608
C          4.77029        1.27637        1.00397
C          3.14393        2.74790       -1.76938
H          0.10939        0.27886       -1.32995
H          0.38359        0.32296       -3.08512
H          0.55093        1.82392       -2.12086
H          2.42640       -0.68694       -1.87912
H          5.40886        1.44011       -1.76545
H          4.81310       -0.18083       -2.19145
H          4.19630       -0.62416        0.16944
H          7.13015        0.30569       -0.20263
H          6.46030       -1.27434       -0.71959
H          6.55369       -0.86545        1.02456
H          5.46685        2.12368        0.81734
H          4.98635        0.88859        2.02203
H          3.73677        1.67974        1.01511
H          3.58002        3.20624       -0.85518
H          2.10418        3.11576       -1.86981
H          3.72869        3.15641       -2.62458
