29
3-ETHYLHEPTANE.gamout	Energy:    -354.7370746
C          3.50925        1.88738        2.05573
C          2.15400        2.41580        2.58465
C          2.33239        3.74069        3.36591
C          1.12183        2.56792        1.44065
C          4.44122        1.28937        3.12377
C          1.15025        4.13515        4.26061
C          0.57687        1.24925        0.87738
C          5.75698        0.70317        2.57774
C          6.72348        1.72913        1.97069
H          4.02215        2.71912        1.51968
H          3.32280        1.10573        1.28526
H          1.75075        1.65535        3.29825
H          2.54082        4.55668        2.63531
H          3.24584        3.66507        3.99575
H          0.26598        3.17800        1.80452
H          1.58708        3.16529        0.62248
H          3.88930        0.48739        3.66449
H          4.68316        2.05707        3.89521
H          1.34922        5.08662        4.79650
H          0.21311        4.27848        3.68180
H          0.94703        3.35720        5.02765
H          0.06923        0.65201        1.66498
H          1.37845        0.61193        0.44711
H         -0.16226        1.42858        0.06876
H          6.27264        0.16327        3.40283
H          5.52005       -0.07538        1.81567
H          6.29322        2.23568        1.08121
H          7.66993        1.24858        1.64566
H          6.99017        2.52152        2.70378
