29
3-ETHYL-3-METHYLHEXANE.gamout	Energy:    -354.7308485
C          3.50227        2.83656        3.15738
C          2.44544        1.71899        3.41001
C          2.18812        0.98400        2.05303
C          1.08597        2.29147        3.93259
C          3.01458        0.66196        4.38287
C          3.93988        3.72952        4.33163
C          1.53063        1.78669        0.92060
C          0.92675        2.53538        5.44226
C          5.08812        4.67546        3.95070
H          4.41230        2.34537        2.73722
H          3.12232        3.50061        2.34870
H          1.55690        0.09222        2.27065
H          3.16221        0.58290        1.69011
H          0.28053        1.58558        3.62448
H          0.87208        3.23870        3.38860
H          3.28642        1.08712        5.37035
H          3.93029        0.19663        3.95858
H          2.28259       -0.15443        4.56542
H          3.07878        4.33680        4.68659
H          4.25550        3.10377        5.19556
H          0.53297        2.17992        1.20683
H          1.38167        1.14492        0.02700
H          2.15099        2.64921        0.59935
H          1.68073        3.23750        5.85125
H          1.00007        1.59558        6.02834
H         -0.07292        2.96945        5.65576
H          5.99092        4.11133        3.63121
H          5.38466        5.32444        4.80117
H          4.80232        5.34141        3.10774
