22
3-HEPTANONE.gamout	Energy:    -350.1425895
C          4.55358        2.58241        1.65144
C          3.77160        3.04005        2.88424
C          2.36894        2.45286        3.06083
O          4.23699        3.83950        3.68484
C          6.00494        3.06883        1.60791
C          1.59325        3.04931        4.23522
C          6.74699        2.67902        0.32052
C          8.19390        3.18626        0.27720
H          4.49360        1.47103        1.58638
H          3.99126        2.94058        0.75576
H          1.81760        2.57563        2.09994
H          2.48528        1.34933        3.17337
H          6.54826        2.67072        2.49378
H          6.01299        4.17314        1.73641
H          2.13183        2.88532        5.18995
H          0.58480        2.59640        4.31998
H          1.47495        4.14552        4.11814
H          6.73568        1.57054        0.20727
H          6.18706        3.07314       -0.55883
H          8.23308        4.29332        0.36081
H          8.79332        2.77260        1.11628
H          8.70154        2.90309       -0.66818
