16
3-HYDROXYBENZOIC_ACID.gamout	Energy:    -495.6952538
C          6.36282        1.88001       -0.63310
C          6.90219        0.60717       -0.33700
C          4.96758        2.04309       -0.70393
O          7.23782        2.90518       -0.83923
C          4.11352        0.94289       -0.48092
C          4.65033       -0.32794       -0.18550
C          2.64224        1.19297       -0.57287
C          6.04595       -0.48147       -0.11656
O          2.13286        2.27455       -0.82554
O          1.89802        0.07559       -0.34330
H          7.99600        0.49684       -0.28542
H          4.51256        3.02132       -0.93237
H          6.72803        3.71556       -1.03143
H          3.97788       -1.17953       -0.01325
H          6.47692       -1.46874        0.11323
H          0.96410        0.36700       -0.43075
