21
3-METHYL-TRANS-2-HEXENE.gamout	Energy:    -274.9518845
C          0.47888        3.05126        1.48268
C          1.91123        2.91909        2.01482
C          2.85331        2.18257        1.03575
C          4.29025        2.04697        1.51180
C          5.28135        2.73113        0.88546
C          4.51009        1.12440        2.68934
C          6.75115        2.75107        1.19910
H          0.02131        2.05632        1.29289
H          0.45305        3.61266        0.52391
H         -0.17743        3.58736        2.19961
H          1.89293        2.38651        2.99155
H          2.33180        3.92828        2.22278
H          2.84105        2.71572        0.05956
H          2.43074        1.16731        0.84187
H          4.97956        3.36219        0.02702
H          4.08904        0.11550        2.48012
H          3.98991        1.49310        3.60093
H          5.57855        0.99667        2.94895
H          7.35344        2.42572        0.32120
H          7.02600        2.10107        2.05314
H          7.09575        3.78179        1.44034
