21
3-METHYL-TRANS-3-HEXENE.gamout	Energy:    -274.9513667
C          3.26991        2.49813        2.34741
C          4.49774        1.92287        2.30648
C          5.65515        2.52656        1.52422
C          4.85343        0.63783        3.02029
C          2.02778        2.01130        3.05122
C          5.39782        3.83364        0.77041
C          0.87274        1.70288        2.07769
H          3.12843        3.43873        1.78387
H          6.50870        2.66708        2.22983
H          6.01942        1.75253        0.80641
H          5.68710        0.79956        3.74020
H          4.00602        0.19981        3.58114
H          5.21439       -0.12987        2.29937
H          2.24273        1.11423        3.66925
H          1.68621        2.79776        3.76455
H          5.09267        4.65137        1.45691
H          6.31407        4.16878        0.24215
H          4.59794        3.71820        0.00954
H          1.14294        0.88327        1.37894
H         -0.04688        1.39866        2.62047
H          0.61829        2.59106        1.46042
