13
3-METHYL-1,2-BUTADIENE.gamout	Energy:    -195.1422588
C          3.06414        2.84453        1.49267
C          2.07301        2.00839        1.21672
C          2.30180        0.51129        1.11085
C          0.65484        2.50038        0.99098
C          4.05086        3.67618        1.76748
H          1.66901       -0.03533        1.84503
H          2.01566        0.14133        0.10124
H          3.35944        0.24078        1.29398
H          0.29614        2.20854       -0.02111
H         -0.04262        2.03875        1.72499
H          0.57847        3.60084        1.08330
H          4.66384        4.13525        0.96973
H          4.30734        3.95037        2.80762
