21
3-METHYL-2-PENTANOL.gamout	Energy:    -312.0535429
C          0.32186        1.31833       -0.95893
C          0.28134        0.38636        0.26545
C         -1.08583       -0.34685        0.39853
C         -2.27067        0.57790        0.70749
O         -1.36013       -1.17261       -0.73884
C          1.42919       -0.64988        0.25215
C          2.84891       -0.07005        0.25903
H          1.29048        1.85216       -1.03241
H          0.19995        0.74062       -1.90209
H         -0.46985        2.09580       -0.92604
H          0.39721        1.01616        1.17980
H         -0.98412       -1.07015        1.23874
H         -2.45356        1.29563       -0.12163
H         -3.19314       -0.02226        0.84213
H         -2.09882        1.17006        1.63080
H         -1.54268       -0.57181       -1.48720
H          1.30352       -1.31034        1.13964
H          1.28299       -1.31210       -0.62979
H          3.06458        0.52833       -0.65101
H          3.01494        0.59158        1.13687
H          3.60919       -0.87734        0.30274
