50
3-METHYLPENTADECANE.gamout	Energy:    -629.7171331
C         85.93147       29.93132       -0.06788
C         84.62400       29.12326       -0.12811
C         85.72493       31.45176       -0.13561
C         84.84629       27.60354       -0.09936
C         87.02135       32.26982       -0.02519
C         83.58886       26.70863        0.01406
C         86.80328       33.78797       -0.11257
C         82.55921       26.92675       -1.13088
C         84.01402       25.23105        0.09980
C         88.08690       34.61983        0.03233
C         81.45164       27.94737       -0.82927
C         87.85638       36.13558       -0.06749
C         89.12919       36.97883        0.10124
C         88.89032       38.49287       -0.00464
C         90.15656       39.34329        0.17958
C         89.90503       40.85219        0.07049
H         86.47481       29.67339        0.87062
H         86.60321       29.61153       -0.89826
H         84.06559       29.40907       -1.04755
H         83.97506       29.42274        0.72740
H         85.20554       31.71118       -1.08714
H         85.02841       31.76391        0.67728
H         85.52076       27.36378        0.75544
H         85.40994       27.30189       -1.01394
H         87.52692       32.02541        0.93769
H         87.73067       31.95055       -0.82392
H         83.08112       26.96543        0.97469
H         86.31275       34.03422       -1.08283
H         86.07660       34.09836        0.67420
H         83.09998       27.21302       -2.06239
H         82.07308       25.95314       -1.36425
H         83.14273       24.56536        0.27611
H         84.74132       25.05984        0.92145
H         84.49878       24.90055       -0.84533
H         88.56795       34.38530        1.01021
H         88.82222       34.30518       -0.74445
H         80.74751       28.04883       -1.68218
H         80.85606       27.63372        0.05490
H         81.85337       28.95780       -0.61120
H         87.38543       36.37233       -1.04983
H         87.10893       36.44207        0.70113
H         89.59425       36.74944        1.08817
H         89.88168       36.66964       -0.66124
H         88.43174       38.72532       -0.99410
H         88.13044       38.79696        0.75291
H         90.61041       39.11271        1.17064
H         90.91725       39.03668       -0.57457
H         90.83728       41.43740        0.21305
H         89.49059       41.12412       -0.92436
H         89.17543       41.19796        0.83433
