32
3-METHYL-5-ETHYLHEPTANE.gamout	Energy:    -394.0150996
C          3.97516        3.99376        1.46882
C          2.79993        3.32328        2.22257
C          2.65131        1.82056        1.88915
C          1.48419        4.12539        2.04000
C          5.40589        3.49524        1.82766
C          1.53537        1.09029        2.65000
C          0.88609        4.13219        0.62507
C          6.37289        4.69490        1.99018
C          5.94129        2.47463        0.80523
C          7.78287        4.34840        2.48490
H          3.82016        3.89435        0.36973
H          3.91962        5.08598        1.67523
H          3.04637        3.38316        3.31080
H          2.49996        1.69593        0.79221
H          3.61610        1.31626        2.11430
H          0.72394        3.73985        2.75435
H          1.67526        5.17568        2.35619
H          5.35115        2.98872        2.82188
H          0.52508        1.45774        2.37390
H          1.55463        0.00035        2.44104
H          1.64434        1.21833        3.74898
H          0.64265        3.10891        0.26851
H         -0.05481        4.72029        0.59619
H          1.57705        4.58322       -0.11789
H          6.43806        5.22993        1.01371
H          5.90944        5.42009        2.69649
H          6.07841        2.95337       -0.18967
H          6.92108        2.05130        1.10934
H          5.24552        1.62242        0.66621
H          8.38063        5.26626        2.66468
H          7.74756        3.78154        3.44045
H          8.34561        3.73053        1.75438
