16
3-METHYL-1,4-PENTADIENE.gamout	Energy:    -234.4281791
C          1.78447        1.28609        1.76105
C          3.03435        1.70336        1.00937
C          4.27553        1.26301        1.76234
C          3.04876        3.23644        0.78486
C          0.81975        0.47915        1.28452
C          5.22543        0.43785        1.28726
H          1.68220        1.70357        2.78217
H          3.03004        1.20131        0.01587
H          4.38442        1.67906        2.78335
H          3.05291        3.78323        1.75279
H          3.95306        3.54406        0.22045
H          2.15146        3.56071        0.21862
H          0.88247        0.03949        0.27374
H         -0.06891        0.22388        1.88430
H          5.15558       -0.00117        0.27669
H          6.10851        0.16660        1.88824
