13
3-METHYL-1-BUTYNE.gamout	Energy:    -195.1278085
C          3.07718        2.17192        0.99239
C          1.74622        2.16253        1.61942
C          0.95631        0.89137        1.23178
C          0.96010        3.45037        1.28250
C          4.17457        2.18016        0.44974
H          1.90423        2.14021        2.72349
H         -0.02415        0.87060        1.75184
H          0.76762        0.86389        0.13855
H          1.51249       -0.02787        1.50396
H          0.77167        3.52113        0.19120
H         -0.02032        3.45196        1.80292
H          1.51824        4.35678        1.59110
H          5.14596        2.18721       -0.02434
