16
3-METHYLTHIACYCLOPENTANE.gamout	Energy:    -594.5159867
C          6.28245        2.41629       -1.88230
C          6.04903        1.41211       -0.74532
C          6.91148        1.66841        0.50672
C          6.68161        0.49598        1.46689
S          6.53877       -1.02176        0.40533
C          6.34250       -0.04413       -1.15665
H          5.64823        2.18598       -2.76349
H          6.04275        3.45073       -1.55882
H          7.34267        2.40332       -2.21568
H          4.97912        1.46363       -0.43615
H          7.98352        1.70877        0.20903
H          6.66292        2.63972        0.98732
H          7.51420        0.35633        2.18571
H          5.74358        0.62211        2.04839
H          7.28214       -0.10611       -1.74831
H          5.52548       -0.48768       -1.76190
