18
3-METHYL-2-BUTANOL.gamout	Energy:    -272.7726232
C          1.86811        1.94129        3.40500
C          2.73543        1.88415        2.11887
C          1.93659        1.45858        0.87525
C          3.95936        0.97421        2.32764
C          0.65129        2.87128        3.29866
O          2.65668        2.28553        4.54881
H          1.50879        0.90728        3.61776
H          3.10627        2.92625        1.94823
H          1.12581        2.17060        0.61975
H          1.47440        0.45738        1.02242
H          2.60136        1.38413       -0.01079
H          4.50574        1.25935        3.24748
H          4.65393        1.03293        1.46421
H          3.64703       -0.08733        2.43889
H          0.96489        3.90334        3.02276
H         -0.08234        2.52960        2.54050
H          0.13493        2.92054        4.27841
H          2.97936        3.19682        4.40250
