24
3-METHYL-3-ETHYL-1-PENTENE.gamout	Energy:    -314.2197662
C          0.95259        4.45239        0.42271
C          1.55990        3.15142        0.96630
C          2.77817        3.28152        1.94289
C          3.86642        4.11658        1.27506
C          3.31239        1.86272        2.28959
C          2.34468        4.02061        3.23538
C          5.08458        3.72233        0.85894
C          2.35280        0.91613        3.02511
H          0.59941        5.12287        1.23444
H          1.67168        5.02565       -0.19824
H          0.07446        4.23057       -0.21867
H          1.87863        2.51483        0.11062
H          0.76301        2.58284        1.49487
H          3.59901        5.18037        1.12903
H          3.63898        1.37275        1.34501
H          4.23328        1.98591        2.90279
H          3.16835        4.03992        3.98009
H          2.06638        5.07504        3.02958
H          1.46662        3.53091        3.70546
H          5.77686        4.43777        0.38606
H          5.44779        2.68755        0.96448
H          1.43746        0.69784        2.43646
H          2.84807       -0.05737        3.22281
H          2.03025        1.32022        4.00720
