16
3-METHYL-1,2-PENTADIENE.gamout	Energy:    -234.4252153
C          0.76081        0.05235        0.07021
C          2.07926        0.00556        0.03160
C          3.40420       -0.03092        0.00200
C          4.17702       -0.99153       -0.89467
C          3.32885       -1.92026       -1.76652
C          4.23974        0.89321        0.86983
H          0.18275        0.71549       -0.59968
H          0.17754       -0.57006        0.77383
H          4.85618       -1.59296       -0.24552
H          4.85859       -0.38141       -1.53314
H          2.67239       -2.56557       -1.14739
H          3.96946       -2.58006       -2.38689
H          2.67295       -1.34157       -2.44897
H          3.61187        1.55509        1.49653
H          4.90167        1.53075        0.24273
H          4.90320        0.30362        1.54069
