26
4-(MMIM)PHO.gamout	Energy:    -610.6490118
N          1.12330       -0.37411       -0.15240
N         -1.06985       -0.49161        0.06356
C          0.06498       -1.27099       -0.11275
C          0.64555        0.92368        0.00025
C         -0.71343        0.85228        0.12133
C          2.49822       -0.69623       -0.50477
C         -2.40504       -0.99039        0.35858
H          1.31550        1.78853       -0.00172
H         -1.45835        1.64164        0.25837
H          2.50899       -1.62486       -1.10653
H          2.92179        0.13347       -1.10384
H          3.13364       -0.84905        0.39291
H         -2.89564       -0.30730        1.07958
H         -3.03664       -1.06131       -0.55193
H         -2.32271       -1.99864        0.80771
C          0.12726       -2.68811       -0.23184
C          1.21486       -3.44887        0.32798
C          1.27076       -4.81978        0.22303
C          0.24759       -5.60947       -0.47756
C         -0.83979       -4.79986       -1.04574
C         -0.89704       -3.43103       -0.91973
H          1.98961       -2.92655        0.91157
H          2.09235       -5.38426        0.69018
H         -1.71562       -2.88449       -1.41487
H         -1.61444       -5.34301       -1.60846
O          0.29746       -6.85197       -0.58036
