17
4-AMINO-2-NITROPHENOL.gamout	Energy:    -566.9324851
O          1.49498       -2.16409        0.03232
O          1.88920        1.98881        0.04531
O          2.88592        0.04204        0.05294
N          1.87725        0.74979        0.04277
N         -2.98625        1.23914       -0.01337
C          0.55322        0.08270        0.02592
C         -1.88470        0.40987       -0.00227
C         -0.57190        0.92633        0.01457
C          0.42063       -1.33324        0.02126
C         -2.02332       -1.00518       -0.00732
C         -0.90141       -1.83753        0.00423
H         -0.37292        2.00736        0.01930
H         -3.02817       -1.45772       -0.02026
H         -1.04490       -2.93220        0.00003
H         -3.92830        0.85859       -0.02569
H         -2.87836        2.24970       -0.00957
H          1.15446       -3.08031        0.02621
