13
4-CHLOROPHENOL.gamout	Energy:    -766.7461110
Cl        -2.27359        0.08219       -0.14456
O          3.63103        0.01287        0.45075
C          2.27472        0.07599        0.31459
C          1.56440        1.29435        0.26400
C          1.56587       -1.14146        0.22213
C          0.16693        1.29968        0.12335
C          0.17152       -1.13950        0.08187
C         -0.52702        0.08153        0.03255
H          2.10806        2.25202        0.33523
H          2.12654       -2.08748        0.26222
H         -0.38490        2.25027        0.08398
H         -0.38099       -2.08787        0.00970
H          3.98320        0.92187        0.50226
