17
4-CHLORO-3-NITROBENZOTRIFLUORIDE.gamout	Energy:   -1232.7280278
N          7.24200        2.96869       -0.90375
O          6.90699        4.10215       -0.56804
O          8.32212        2.65171       -1.40791
C          6.27861        1.86172       -0.65341
C          6.83275        0.61296       -0.33084
C          4.87571        2.03438       -0.71827
C          5.99787       -0.47282       -0.03677
Cl         4.11722        3.52298       -1.18653
C          4.04711        0.92817       -0.43768
C          6.59173       -1.83177        0.28187
C          4.59878       -0.30962       -0.08905
F          6.68126       -2.60069       -0.83232
F          5.82227       -2.50531        1.17202
F          7.83641       -1.72657        0.80240
H          7.92732        0.51878       -0.30892
H          2.95719        1.06049       -0.49741
H          3.93700       -1.15663        0.14534
