16
4-CHLORO-3-METHYLPHENOL.gamout	Energy:    -806.0339954
Cl        -3.09686        0.88609        0.17227
O          2.67097       -0.40922       -0.29716
C         -0.97244       -0.85392       -0.02426
C          0.40759       -1.10866       -0.13581
C         -1.38428        0.50140        0.03375
C          1.35375       -0.06416       -0.18848
C         -1.97004       -1.98375        0.03073
C         -0.45604        1.55232       -0.01716
C          0.91541        1.27381       -0.12822
H          0.77502       -2.14545       -0.18534
H         -2.56304       -1.94921        0.96915
H         -2.69937       -1.91505       -0.80400
H         -1.46335       -2.96666       -0.02738
H         -0.81205        2.59178        0.03107
H          1.64301        2.10187       -0.16804
H          3.20530        0.40711       -0.32237
