22
4-HEPTANONE.gamout	Energy:    -350.1392608
C          2.02691        2.09569        1.93856
C          3.21838        1.16926        1.67609
C          4.45348        1.77962        1.00524
O          3.17765       -0.02183        1.95519
C          0.83892        1.42741        2.64446
C          5.11160        2.95090        1.76375
C          1.08607        1.13251        4.12993
C          6.37171        3.47646        1.06473
H          1.72441        2.50680        0.94649
H          2.38234        2.98628        2.50732
H          5.17815        0.95006        0.86840
H          4.15464        2.12369       -0.01305
H          0.60701        0.47887        2.11407
H         -0.05423        2.08025        2.53467
H          4.38225        3.78206        1.88224
H          5.36870        2.61734        2.79396
H          0.20319        0.64518        4.59382
H          1.95018        0.45034        4.25907
H          1.28907        2.06419        4.70145
H          6.83047        4.31357        1.63068
H          6.14168        3.84819        0.04329
H          7.13924        2.68038        0.96151
