19
4-HYDROXY-PHENYLACETIC_ACID.gamout	Energy:    -534.9719426
O         -1.34005       -1.45375        3.29890
O         -0.80184       -2.00899       -3.39485
O          0.73862       -0.35960       -3.21020
C         -1.47726       -0.40398       -0.77051
C         -1.47997       -0.02761       -2.24594
C         -2.44817       -1.27232       -0.23338
C         -0.46630        0.08027        0.09088
C         -2.42558       -1.63632        1.12286
C         -0.43049       -0.27633        1.44433
C         -1.41488       -1.14004        1.97235
C         -0.38597       -0.77467       -2.99986
H         -2.46338       -0.25970       -2.70143
H         -1.27898        1.05463       -2.37383
H         -3.24267       -1.67020       -0.88533
H          0.30914        0.75209       -0.31164
H         -3.19937       -2.31170        1.52721
H          0.35411        0.10451        2.11557
H         -2.06823       -2.06723        3.51456
H         -0.01818       -2.42757       -3.81701
