20
4-METHYLQUINOLINE.gamout	Energy:    -440.9258916
C         -3.90813       -2.13216        1.71105
C         -5.35901       -1.84934        2.01406
C         -3.47336       -3.43228        1.26984
C         -2.93273       -1.14776        1.84667
C         -2.06409       -3.62244        1.00138
C         -4.35972       -4.53730        1.08559
C         -1.57057       -1.44351        1.55449
N         -1.13457       -2.62595        1.14757
C         -1.60769       -4.90338        0.56305
C         -3.88264       -5.77099        0.65767
C         -2.49679       -5.95613        0.39442
H         -5.50169       -0.79974        2.33721
H         -6.00274       -2.02241        1.12509
H         -5.74142       -2.50971        2.82169
H         -3.20745       -0.13394        2.18077
H         -5.43455       -4.40936        1.28564
H         -0.80933       -0.64780        1.66840
H         -0.52981       -5.01170        0.36846
H         -4.58092       -6.61203        0.52100
H         -2.13272       -6.93927        0.05580
