27
4-METHYLPHENANTHRENE.gamout	Energy:    -578.4220504
C          0.67994       -0.20710       -0.00001
C         -0.79386       -0.28415       -0.00000
C          1.27641        1.11487       -0.00001
C         -1.56899        0.93875       -0.00000
C          1.58873       -1.33409       -0.00000
C          0.45392        2.29694       -0.00001
C         -0.91230        2.21650       -0.00001
C          2.68712        1.28953       -0.00006
C         -1.54689       -1.49787        0.00000
C          2.97467       -1.09850       -0.00000
C         -2.99194        0.89353        0.00000
C          3.53667        0.19321       -0.00002
C          1.18555       -2.79613        0.00001
C         -2.94288       -1.51720        0.00000
C         -3.68157       -0.31397        0.00000
H          0.95871        3.27660       -0.00006
H         -1.53343        3.12678       -0.00000
H          3.08984        2.31544       -0.00006
H         -1.03409       -2.46064        0.00000
H          3.64711       -1.97186        0.00001
H         -3.54168        1.84911        0.00000
H          4.63037        0.32229       -0.00007
H          2.09302       -3.43147        0.00001
H          0.59151       -3.07493        0.89559
H          0.59150       -3.07494       -0.89556
H         -3.46588       -2.48682        0.00001
H         -4.78289       -0.33162        0.00001
