21
4-METHYL-2-PENTANOL.gamout	Energy:    -312.0535735
C          2.41777        2.66710        2.73381
C          3.90508        2.72395        3.14824
C          1.52823        1.58902        3.38761
C          4.63833        3.81496        2.34727
C          4.09872        2.93358        4.66120
C          2.00812        0.16136        3.13643
O          0.19892        1.66611        2.85986
H          1.95678        3.66308        2.94449
H          2.34805        2.52532        1.63175
H          4.36661        1.74550        2.87831
H          1.50732        1.76115        4.49432
H          5.72147        3.83787        2.59042
H          4.53866        3.65468        1.25306
H          4.22429        4.82172        2.57570
H          5.17633        3.01925        4.91502
H          3.60391        3.87011        5.00201
H          3.68264        2.09801        5.26124
H          2.08356       -0.03930        2.04660
H          1.28481       -0.56151        3.56481
H          2.99898       -0.02131        3.59855
H         -0.12948        2.56701        3.04042
