21
4-METHYL-TRANS-2-HEXENE.gamout	Energy:    -274.9490846
C          5.70942        0.81409        1.28990
C          4.31049        1.28075        0.86532
C          3.43384        1.86123        2.00815
C          3.10174        0.80668        3.08667
C          2.16417        2.46070        1.44608
C          1.79605        3.75528        1.53599
C          0.53543        4.35088        0.97394
H          6.29318        1.64508        1.74094
H          5.67213       -0.00870        2.03401
H          6.28521        0.43810        0.41860
H          4.40929        2.06073        0.07893
H          3.76086        0.43702        0.38720
H          4.01284        2.68166        2.49339
H          4.01959        0.35946        3.52160
H          2.52331        1.25848        3.91819
H          2.49276       -0.01991        2.65978
H          1.49357        1.75254        0.91683
H          2.47114        4.45360        2.06984
H          0.75893        5.15815        0.24086
H         -0.08822        3.59033        0.46041
H         -0.08440        4.81928        1.77079
