24
4-METHYL-3-ETHYL-1-PENTENE.gamout	Energy:    -314.2209753
C          2.31106        5.49541        1.38157
C          2.12671        3.98116        1.59620
C          3.19767        3.38041        2.55098
C          0.70177        3.70609        2.11680
C          3.17476        1.86556        2.66695
C          4.66298        3.83070        2.25173
C          2.69483        0.96767        1.78546
C          5.19851        3.45352        0.86512
H          2.29031        6.04371        2.34979
H          1.48944        5.90321        0.75604
H          3.26438        5.74718        0.87494
H          2.23464        3.48747        0.60271
H          2.96954        3.77621        3.57064
H          0.50781        2.62569        2.26629
H         -0.06236        4.09508        1.41126
H          0.54105        4.21474        3.09265
H          3.67036        1.47578        3.57758
H          4.73639        4.92961        2.40012
H          5.32060        3.38419        3.03093
H          2.19138        1.26461        0.85008
H          2.78517       -0.11529        1.96990
H          6.27065        3.72373        0.76860
H          4.65429        3.97461        0.04931
H          5.10754        2.36272        0.67974
