16
4-METHYL-1-PENTYNE.gamout	Energy:    -234.4119368
C          3.62593        0.94721        1.14427
C          4.35670        2.10839        1.87740
C          2.17672        0.90854        1.34753
C          3.86179        3.48045        1.39585
C          5.87720        1.96118        1.70930
C          0.96625        0.88167        1.52844
H          3.83835        1.01917        0.05170
H          4.05984       -0.02454        1.47290
H          4.11490        2.01311        2.96045
H          4.35061        4.30292        1.95858
H          4.08878        3.63162        0.31763
H          2.76491        3.58252        1.52643
H          6.16844        2.02976        0.63834
H          6.41948        2.76225        2.25316
H          6.24265        0.98600        2.09472
H         -0.10312        0.85221        1.68433
