20
4-VINYLCYCLOHEXENE.gamout	Energy:    -311.8017450
C          1.00668        2.42098        1.39659
C          1.90134        2.12469        2.35786
C          3.40774        2.21551        2.26752
C          3.95707        2.77129        0.94258
C          4.05650        0.84032        2.58012
C          5.48308        2.96675        1.00548
C          5.54723        0.83116        2.33555
C          6.19049        1.79203        1.63889
H         -0.07503        2.30381        1.57085
H          1.30942        2.79418        0.40458
H          1.52265        1.75053        3.32921
H          3.73959        2.90759        3.08095
H          3.70626        2.06313        0.12044
H          3.46256        3.73381        0.69086
H          3.84413        0.55566        3.63570
H          3.56818        0.04736        1.96382
H          5.88902        3.14510       -0.01553
H          5.72894        3.89504        1.57554
H          6.12248       -0.01327        2.75522
H          7.28699        1.73220        1.51907
