19
5-METHYL-2-HEXYNE.gamout	Energy:    -273.7064243
C          3.15252        3.22188        1.08228
C          1.95363        2.73092        1.94403
C          4.38440        2.44392        1.23740
C          1.55339        1.29104        1.59029
C          0.76982        3.70009        1.79997
C          5.41333        1.79052        1.36941
C          6.63956        1.01176        1.52667
H          2.84400        3.21844        0.00974
H          3.36006        4.28845        1.32928
H          2.28915        2.74629        3.00648
H          0.73162        0.93061        2.24407
H          1.19845        1.22383        0.53811
H          2.41078        0.59579        1.70102
H          0.40813        3.73533        0.74884
H         -0.08537        3.38873        2.43560
H          1.04720        4.73500        2.09264
H          7.54476        1.64170        1.38729
H          6.70802        0.55646        2.53838
H          6.69650        0.18387        0.78716
