21
5-METHYL-CIS-2-HEXENE.gamout	Energy:    -274.9479762
C          1.03792        2.64740        3.10323
C          1.79838        1.96526        1.95278
C          0.82468        1.37585        0.91975
C          2.77811        0.86797        2.45754
C          3.85149        1.34853        3.40096
C          5.17344        1.47885        3.14339
C          5.90090        1.16924        1.86396
H          0.34021        3.42007        2.71770
H          1.72572        3.14643        3.81649
H          0.43416        1.90864        3.67569
H          2.41268        2.74399        1.44268
H          0.14365        2.15295        0.51299
H          0.18990        0.58266        1.37328
H          1.36379        0.91899        0.06258
H          3.23757        0.37395        1.57477
H          2.17318        0.08155        2.96991
H          3.51441        1.62940        4.41570
H          5.81068        1.85482        3.96603
H          5.23566        0.78860        1.06387
H          6.69794        0.41074        2.03208
H          6.41700        2.07319        1.47032
