24
5-METHYL-TRANS-3-HEPTENE.gamout	Energy:    -314.2274677
C          1.02274        2.91103        3.91801
C          1.47116        2.12967        2.66847
C          2.96331        2.14661        2.45535
C          3.75565        1.05660        2.37550
C          5.26537        1.07109        2.16005
C          6.00185        1.78491        3.32717
C          5.63212        1.66553        0.78249
C          7.51905        1.56081        3.36276
H          1.34537        3.97303        3.86661
H         -0.08198        2.90271        4.02561
H          1.45975        2.47641        4.84133
H          1.11636        1.07712        2.72900
H          0.97049        2.57361        1.77568
H          3.42043        3.15254        2.36321
H          3.27753        0.06236        2.47118
H          5.60801        0.01087        2.16495
H          5.78037        2.87526        3.27468
H          5.55604        1.43530        4.28414
H          5.33596        2.73457        0.72390
H          6.72222        1.60196        0.58212
H          5.10834        1.13063       -0.03640
H          7.98253        2.08499        4.22456
H          7.76397        0.48122        3.46102
H          8.02111        1.93320        2.44537
