19
5-METHYL-1-HEXYNE.gamout	Energy:    -273.6932352
C          3.45471        2.47035        1.78272
C          2.06444        2.05876        1.25032
C          4.63436        1.65600        1.20049
C          1.69278        0.61404        1.62830
C          0.99091        3.04562        1.74073
C          5.94561        2.11100        1.66659
C          7.03268        2.50492        2.06792
H          3.63128        3.54577        1.56280
H          3.46633        2.37963        2.89263
H          2.10012        2.12128        0.13625
H          4.51986        0.57866        1.45540
H          4.60649        1.70531        0.08718
H          1.67861        0.48456        2.73292
H          0.68384        0.34629        1.25000
H          2.40397       -0.13019        1.21348
H         -0.01059        2.78909        1.33608
H          0.91479        3.03160        2.85006
H          1.22176        4.08777        1.43558
H          7.99580        2.84823        2.41906
