21
5-VINYLNORBORNENE.gamout	Energy:    -349.8585688
C         -0.95755        1.53018       -0.58793
C         -1.36550       -0.68509       -0.37651
C          0.44872        0.88276       -0.97162
C         -1.44015        0.57090        0.52912
C          0.15422       -0.64876       -0.77034
C         -1.90176        1.13505       -1.71632
C         -2.14161       -0.19171       -1.59380
C          1.58860        1.39837       -0.13459
C          2.68865        2.01265       -0.61015
H         -0.89584        2.60869       -0.34629
H         -1.69916       -1.64684        0.05993
H          0.66642        1.10326       -2.03760
H         -2.47168        0.79776        0.86827
H         -0.76438        0.52795        1.41033
H          0.77196       -1.06459        0.05383
H          0.37233       -1.24233       -1.68060
H         -2.20997        1.79683       -2.54022
H         -2.69272       -0.83852       -2.29357
H          1.48983        1.25723        0.95979
H          3.48467        2.37572        0.05991
H          2.83504        2.17291       -1.69268
