24
6-METHYL-CIS-3-HEPTENE.gamout	Energy:    -314.2310415
C          1.47799        0.41468       -1.07856
C          2.33317       -0.05025        0.11475
C          3.01059       -1.37643       -0.12323
C          4.33285       -1.65851       -0.08812
C          5.48106       -0.72735        0.20152
C          6.56393       -0.69127       -0.91115
C          6.01555       -0.12031       -2.22787
C          7.80309        0.08712       -0.43695
H          0.95285        1.36628       -0.85270
H          0.70415       -0.33764       -1.34363
H          2.10226        0.57660       -1.98211
H          1.67349       -0.14444        1.00953
H          3.08023        0.73122        0.36954
H          2.32430       -2.21330       -0.35782
H          4.62680       -2.70654       -0.29148
H          5.97730       -1.05833        1.14475
H          5.11915        0.30724        0.39213
H          6.87717       -1.74603       -1.10026
H          5.70957        0.94197       -2.10173
H          5.12626       -0.68291       -2.58100
H          6.78036       -0.15282       -3.03239
H          7.54873        1.14761       -0.21806
H          8.60231        0.09087       -1.20791
H          8.22938       -0.35205        0.48964
