14
ACETOIN.gamout	Energy:    -307.4514948
O         -0.51087        0.41006       -0.57940
O          0.52260       -2.96870       -0.19627
C         -0.78489       -0.98604       -0.51548
C          0.54530       -1.75628       -0.34964
C         -1.76767       -1.35281        0.60303
C          1.82405       -0.94774       -0.40305
H         -1.19939       -1.35647       -1.49042
H         -1.39702       -0.98007        1.58034
H         -1.87808       -2.45376        0.65980
H         -2.76868       -0.90931        0.41470
H          2.69532       -1.61295       -0.25991
H          1.80042       -0.14975        0.36780
H          1.89421       -0.41277       -1.37364
H         -1.36661        0.87358       -0.63756
