7
ACETYL_CHLORIDE.gamout	Energy:    -613.2383776
C          2.09592        2.40215        0.92530
C          1.77461        0.93150        0.95933
Cl        -0.03714        0.64823        0.84975
O          2.53168        0.01157        1.04475
H          1.58972        2.91257        1.76906
H          1.70255        2.84759       -0.01034
H          3.19123        2.54477        0.98974
