23
ANETHOLE.gamout	Energy:    -463.1466936
C          1.83767        2.76371        1.83797
C          2.37226        1.86166        2.69732
C          3.56073        2.01253        3.55170
C          0.61376        2.52702        1.00128
C          4.38477        3.16377        3.56021
C          3.92528        0.95463        4.42657
C          5.51093        3.26315        4.39014
C          5.04272        1.03560        5.26125
C          5.85103        2.19462        5.25171
O          6.92281        2.19365        6.09761
C          7.78213        3.32115        6.10328
H          2.31795        3.75391        1.72453
H          1.86598        0.88118        2.78697
H         -0.18605        3.26760        1.22853
H          0.83297        2.63566       -0.08491
H          0.19443        1.51291        1.16448
H          4.14507        4.01333        2.90124
H          3.30637        0.04214        4.44614
H          6.11978        4.17808        4.35967
H          5.31563        0.21011        5.93606
H          8.24530        3.49733        5.10537
H          7.25268        4.24849        6.42136
H          8.58351        3.10052        6.83420
