16
ANISOLE.gamout	Energy:    -346.5160337
C          5.10081        1.10825        3.02162
O          4.07219        1.74560        3.76090
C          3.02595        2.30106        3.07997
C          2.02186        2.90235        3.87481
C          2.89879        2.30707        1.67330
C          0.91302        3.50499        3.26886
C          1.77675        2.91803        1.08019
C          0.78125        3.51882        1.86550
H          5.60452        1.80869        2.31646
H          5.84099        0.74962        3.76183
H          4.71639        0.23751        2.44194
H          2.14103        2.88339        4.96892
H          3.66170        1.84338        1.03194
H          0.13948        3.97033        3.90080
H          1.68737        2.91858       -0.01829
H         -0.09221        3.99289        1.39184
