24
ANTHRAQUINONE.gamout	Energy:    -688.2840155
C         -0.66675       -1.27923        0.10624
C         -2.08951       -0.82544       -0.01698
C          0.39218       -0.21860        0.09509
O         -0.37821       -2.47340        0.21075
C         -1.36162        1.61106       -0.14870
C          0.06115        1.15726       -0.02571
O         -1.65013        2.80521       -0.25356
C         -2.42053        0.55043       -0.13777
C         -3.11586       -1.79233       -0.01104
C          1.08751        2.12414       -0.03183
C         -3.77227        0.93592       -0.25026
C          1.74393       -0.60412        0.20739
C         -4.45684       -1.39921       -0.12345
C         -4.78563       -0.03302       -0.24314
C          2.75730        0.36482        0.20001
C          2.42850        1.73100        0.08039
H         -2.82766       -2.85051        0.08433
H          0.79931        3.18232       -0.12721
H         -3.99676        2.00975       -0.34242
H          1.96842       -1.67794        0.29954
H         -5.25449       -2.15902       -0.11801
H         -5.83998        0.27359       -0.33151
H          3.81167        0.05820        0.28827
H          3.22616        2.49081        0.07476
