21
ASPIRIN.gamout	Energy:    -648.2139940
C          0.82147        1.19399        1.24940
C          1.58636        0.03363        0.99332
C         -0.56636        1.05285        1.57350
O          1.28888        2.48243        1.21797
C          0.99998       -1.24031        1.05421
C         -1.12399       -0.24585        1.62630
C         -1.45038        2.23416        1.85932
C         -0.35823       -1.38992        1.37089
O         -1.14374        3.41119        1.85885
O         -2.73274        1.83396        2.14276
C          2.52800        3.07100        0.96460
O          2.56899        4.27504        1.02820
C          3.73284        2.21508        0.63291
H          2.64804        0.10715        0.74223
H          1.62499       -2.12409        0.84904
H         -2.18936       -0.33555        1.87719
H         -0.81751       -2.38893        1.41847
H         -3.21515        2.67281        2.31039
H          3.97432        1.51546        1.45859
H          3.56984        1.62412       -0.29082
H          4.58736        2.89793        0.47782
