14
BENZOYL_BROMIDE.gamout	Energy:   -2918.8584599
C          6.29725        1.88056       -0.59908
C          6.83688        0.59271       -0.35206
C          4.90937        2.06517       -0.63263
C          4.04794        0.97190       -0.42101
C          4.57916       -0.30720       -0.17521
C          5.96816       -0.50007       -0.13986
C          8.32234        0.49370       -0.33732
Br         9.05578       -1.35234        0.01657
O          9.09616        1.39192       -0.51447
H          6.98710        2.72203       -0.76247
H          4.49504        3.06724       -0.82489
H          2.95639        1.11823       -0.44783
H          3.90622       -1.16278       -0.00947
H          6.39155       -1.49701        0.05183
