16
BENZENESULFONIC_ACID.gamout	Energy:    -855.6302917
S          1.73199       -0.18515       -0.04572
O          2.12033        0.38334        1.47599
O          2.14680       -1.60235       -0.10887
O          2.23423        0.84411       -0.96384
C         -0.06808       -0.10499       -0.02431
C         -0.69138        1.14557       -0.16819
C         -0.80566       -1.28895        0.12442
C         -2.09250        1.20586       -0.14367
C         -2.20865       -1.21396        0.13836
C         -2.84902        0.02999        0.01194
H         -0.08170        2.04971       -0.30798
H         -0.27645       -2.24900        0.20720
H         -2.59894        2.17714       -0.25434
H         -2.80372       -2.13348        0.24894
H         -3.94834        0.08390        0.02455
H          2.15605       -0.40343        2.06307
