12
BENZENE.gamout	Energy:    -232.0759115
C          3.29735        3.40183        0.23546
C          1.89844        3.54771        0.22454
C          3.87148        2.11961        0.16131
C          1.07333        2.41154        0.13949
C          3.04636        0.98341        0.07628
C          1.64747        1.12931        0.06534
H          3.94359        4.29189        0.30210
H          1.44862        4.55203        0.28262
H          4.96739        2.00523        0.17001
H         -0.02259        2.52584        0.13095
H          3.49630       -0.02087        0.01853
H          1.00124        0.23924       -0.00140
