15
BENZOTRICHLORIDE.gamout	Energy:   -1649.8403835
C          6.32708        1.84563       -0.75910
C          6.84826        0.59386       -0.40714
C          4.93653        2.06619       -0.74313
C          4.07518        1.02239       -0.37364
C          4.59289       -0.23701       -0.01948
C          5.98281       -0.46006       -0.03070
C          6.59613       -1.81012        0.31946
Cl         7.86070       -1.60790        1.61043
Cl         7.40300       -2.51054       -1.15472
Cl         5.39374       -3.01495        0.91675
H          7.01378        2.65705       -1.04785
H          7.93586        0.42626       -0.42144
H          4.52886        3.05171       -1.01886
H          2.98527        1.18095       -0.35722
H          3.91097       -1.04941        0.26788
