30
BENZANTHRACENE.gamout	Energy:    -692.6763409
C          4.20655        1.52056        5.08355
C          4.62869        1.42393        3.67931
C          5.10636        1.05051        6.12340
C          2.96535        2.04989        5.47227
C          5.91659        0.86583        3.37046
C          3.81573        1.86108        2.59977
C          4.71900        1.13729        7.47261
C          6.38953        0.49895        5.75320
C          2.56618        2.14038        6.82868
C          6.77540        0.41023        4.44097
C          6.33148        0.76893        2.01403
C          4.24319        1.75757        1.27432
C          3.46863        1.67103        7.86285
C          1.29706        2.68173        7.21597
C          5.51065        1.20733        0.97546
C          3.05904        1.76628        9.23308
C          0.93404        2.75834        8.55116
C          1.82355        2.29612        9.56932
H          2.25859        2.41457        4.71131
H          2.82478        2.29336        2.80257
H          5.41254        0.77732        8.25097
H          7.05555        0.14870        6.55838
H          7.75721       -0.01364        4.17426
H          7.32214        0.33768        1.79551
H          3.58832        2.10622        0.46012
H          0.61268        3.03725        6.42831
H          5.84632        1.12619       -0.07044
H          3.74716        1.40938       10.01676
H         -0.04461        3.17709        8.83456
H          1.52036        2.36376       10.62623
