15
BENZYL_CHLORIDE.gamout	Energy:    -730.8578110
C          1.38415       -0.00264       -0.94364
C         -0.05098       -0.00132       -0.49362
C         -0.73125        1.21485       -0.26519
C         -2.06282        1.21716        0.17957
C         -2.73299        0.00123        0.40481
C         -2.06486       -1.21596        0.18045
C         -0.73318       -1.21619       -0.26409
Cl         2.54307        0.00119        0.47774
H          1.63084       -0.90655       -1.53254
H          1.63094        0.89802       -1.53747
H         -0.20651        2.16951       -0.43517
H         -2.58218        2.17340        0.35165
H         -3.77794        0.00225        0.75348
H         -2.58577       -2.17122        0.35325
H         -0.21000       -2.17183       -0.43336
