16
BENZYL_ALCOHOL.gamout	Energy:    -346.5142046
C          1.96120       -0.00137       -0.56584
C          0.46718       -0.00077       -0.32304
C         -0.23630        1.21283       -0.17441
C         -1.61420        1.21653        0.10079
C         -2.30729        0.00066        0.23788
C         -1.61548       -1.21592        0.10077
C         -0.23738       -1.21364       -0.17358
O          2.62818        0.00146        0.69480
H          2.23136       -0.90091       -1.17444
H          2.23145        0.89550       -1.17833
H          0.30583        2.16757       -0.27765
H         -2.15140        2.17263        0.20859
H         -3.38881        0.00122        0.44920
H         -2.15367       -2.17145        0.20865
H          0.30376       -2.16895       -0.27676
H          3.58700        0.00122        0.51296
