24
BETA_D-FRUCTOFURANOSE.gamout	Energy:    -686.6679828
O          3.02635       -1.08624        0.28718
C          3.98176       -1.71158        1.13036
C          3.31044       -1.82689        2.54423
C          1.81119       -1.78280        2.21434
C          1.77709       -0.87441        0.96499
H          0.95557       -1.19035        0.28031
C          1.58747        0.61246        1.28322
H          1.22184       -1.33811        3.04778
O          1.41098       -3.12167        1.92306
H          3.56795       -2.80044        3.02597
O          3.68629       -0.72525        3.34139
O          5.13745       -0.89118        1.21824
C          4.37436       -3.05113        0.49190
H          5.88408       -1.53808        1.23154
H          4.48458       -2.87347       -0.60316
H          3.55233       -3.78194        0.66084
O          5.60670       -3.45217        1.09967
H          1.81455        1.19615        0.35754
H          2.32660        0.89764        2.06642
O          0.24199        0.77809        1.71866
H          0.16884        1.66063        2.12333
H          5.97792       -4.19716        0.59389
H          0.49658       -3.08439        1.58545
H          4.51266       -0.40048        2.90352
