51
BETAXOLOL.gamout	Energy:    -983.0106291
O         -4.49472        0.52498        0.08159
O          2.12344        0.77824        0.28957
O          4.68463        0.88807        1.54102
N          3.80669       -2.32364       -0.12313
C         -5.62613       -1.37503        1.00434
C         -5.92971       -2.85636        0.89249
C         -4.63511       -2.39390        1.52723
C         -5.31905       -0.58327       -0.24323
C         -4.24094        1.37822       -1.02142
C         -3.27398        2.48977       -0.59854
C         -1.85207        2.03097       -0.33148
C          3.98539       -0.32991        1.33428
C          4.40684       -1.00654        0.01539
C          4.02213       -3.01642       -1.40326
C          2.48884       -0.03642        1.39765
C         -0.79344        2.39382       -1.19580
C         -1.53882        1.21644        0.77684
C          0.81704        1.14799        0.14475
C          3.62549       -4.48893       -1.23378
C          3.21599       -2.35564       -2.53211
C          0.52001        1.96613       -0.96856
C         -0.22619        0.77480        1.02116
H         -6.19309       -0.80894        1.76413
H         -6.71675       -3.27884        1.53740
H         -5.87699       -3.31570       -0.10906
H         -3.69922       -2.53991        0.96277
H         -4.52133       -2.49119        2.61884
H         -6.27090       -0.22876       -0.71920
H         -4.81364       -1.23997       -0.99887
H         -3.80778        0.79750       -1.87635
H         -5.20016        1.82737       -1.39034
H         -3.27039        3.25860       -1.40065
H         -3.70199        2.97859        0.30504
H          4.17926       -1.05344        2.17396
H          5.53491       -1.01784       -0.02195
H          4.07272       -0.35083       -0.81452
H          5.10828       -2.98449       -1.69785
H          4.13998       -2.92825        0.63991
H          1.93916       -1.00515        1.36890
H          2.25975        0.48478        2.35592
H         -1.00455        3.03488       -2.06850
H         -2.34596        0.90848        1.45871
H          2.55606       -4.56838       -0.94548
H          3.77919       -5.05569       -2.17427
H          4.23115       -4.98348       -0.44331
H          3.50920       -1.29806       -2.69068
H          2.13236       -2.37417       -2.29218
H          3.37867       -2.89097       -3.49041
H          1.34274        2.25572       -1.63990
H         -0.02744        0.14172        1.89739
H          5.63144        0.70816        1.38683
