24
BETA_D-FRUCTOPYRANOSE.gamout	Energy:    -686.6772502
C         -2.73889        2.23899       -1.39171
O         -2.77841        0.80644       -1.39621
C         -2.19554        2.79954       -2.70725
C         -1.84166        2.71137       -0.23416
H         -3.78146        2.58577       -1.21907
O         -0.84633        2.35243       -2.90070
H         -2.24666        3.91072       -2.71317
H         -2.77185        2.40635       -3.56872
C         -0.37135        2.36119       -0.52462
O         -2.22909        2.14145        1.01110
H         -1.92260        3.81537       -0.12526
H         -0.27080        1.24857       -0.50068
O          0.48919        2.97749        0.43089
C          0.07554        2.82292       -1.92919
C          1.45369        2.24541       -2.33104
O          0.12476        4.23960       -1.97043
H         -1.98599        0.52077       -1.90009
H          0.39449        4.50218       -1.06232
O          1.56523        0.84200       -2.14578
H          2.23040        2.81150       -1.76969
H          1.58369        2.46295       -3.41190
H          1.87745        0.69674       -1.23401
H         -2.43080        1.20469        0.78738
H          0.04070        2.85728        1.29490
