22
BHEMA+1.gamout	Energy:    -403.5872388
C         -0.11129        1.47633        0.12568
C         -1.39654        2.11566       -0.41924
O         -2.33722        1.07507       -0.36557
H         -1.21205        2.48790       -1.46355
H         -1.69436        2.99815        0.19779
H         -3.22608        1.43005       -0.55631
N          1.13701        2.30525       -0.09872
H          0.03764        0.51047       -0.39661
H         -0.18679        1.27302        1.21223
C          2.38518        1.49748        0.19403
C          3.68825        2.16919       -0.26143
H          2.28585        0.53656       -0.34879
H          2.39678        1.28010        1.28048
O          4.64298        1.14332       -0.18110
H          3.93484        3.04006        0.39328
H          3.55649        2.56552       -1.30473
H          5.53578        1.52077       -0.29515
C          1.10538        3.61370        0.64860
H          0.20101        4.17923        0.36260
H          2.00413        4.20295        0.39501
H          1.08812        3.39598        1.73299
H          1.16267        2.53544       -1.11219
