22
BIPHENYL.gamout	Energy:    -462.9625237
C          2.45770        0.42058        3.86513
C          3.71288        0.58864        3.22680
C          1.31982        0.31858        3.02431
C          2.33975        0.35383        5.35623
C          3.82617        0.65142        1.83007
C          1.42854        0.38084        1.62721
C          1.08439        0.18825        5.99488
C          3.47806        0.45317        6.19677
C          2.68382        0.54801        1.01807
C          0.97139        0.12534        7.39164
C          3.36963        0.39085        7.59387
C          2.11417        0.22616        8.20334
H          4.62914        0.67327        3.82903
H          0.32049        0.18718        3.46395
H          4.81953        0.78270        1.37198
H          0.52093        0.29748        1.00814
H          0.16773        0.10578        5.39299
H          4.47757        0.58235        5.75684
H          2.77095        0.59707       -0.07877
H         -0.02213       -0.00388        7.84996
H          4.27761        0.47196        8.21271
H          2.02731        0.17688        9.30019
