46
BISACODYL.gamout	Energy:   -1204.5829853
O         -5.95113       -2.84775        5.04215
O          2.82394       -0.61997        1.82207
O         -6.19157       -4.25792        3.23929
O          4.13268       -0.06947        3.63233
N         -3.47134        1.66015        1.04718
C         -2.40730        1.31803        3.25180
C         -3.33844        0.17459        3.67597
C         -1.00672        0.82890        2.85507
C         -3.06630        2.22302        2.20414
C         -3.95345        0.20640        4.94591
C         -0.00740        0.74460        3.84755
C         -3.62090       -0.91851        2.83159
C         -0.66989        0.42808        1.54381
C         -3.24993        3.59904        2.46581
C         -4.81633       -0.81722        5.35929
C          1.28946        0.28125        3.57013
C         -4.48641       -1.95427        3.22284
C          0.61806       -0.03763        1.24521
C         -5.08537       -1.89762        4.49760
C          1.59791       -0.11264        2.25343
C         -3.87970        4.40131        1.50224
C         -4.07099        2.43411        0.12741
C         -4.30648        3.80892        0.30305
C         -6.44901       -3.94670        4.38418
C          4.00232       -0.55992        2.53017
C         -7.38489       -4.71322        5.29705
C          5.10502       -1.19494        1.70980
H         -2.26547        1.94926        4.15298
H         -3.75568        1.04987        5.62850
H         -0.24308        1.05224        4.88020
H         -3.16022       -0.96551        1.83444
H         -1.42919        0.49121        0.74944
H         -2.90094        4.03184        3.41668
H         -5.29337       -0.79866        6.35086
H          2.05375        0.23830        4.35375
H         -4.69962       -2.79487        2.55345
H          0.88648       -0.35103        0.22480
H         -4.03718        5.47613        1.68728
H         -4.38443        1.93008       -0.80553
H         -4.80936        4.39568       -0.48118
H         -8.41613       -4.63348        4.89495
H         -7.36617       -4.33604        6.33517
H         -7.11053       -5.78638        5.27208
H          4.83196       -2.23496        1.43883
H          5.24306       -0.63829        0.76028
H          6.04454       -1.18594        2.29003
