33
BMPIP+1.gamout	Energy:    -448.5009186
C         -3.50014        0.93411        1.18383
C         -2.90607        1.38718       -0.15819
C         -1.42913        1.76573       -0.03144
H         -3.43301        2.28412       -0.54659
H         -3.04286        0.60432       -0.93548
C         -2.65460       -0.19953        1.78581
H         -4.55017        0.60490        1.05177
H         -3.52750        1.79361        1.89005
C         -1.18036        0.18965        1.88965
H         -2.77536       -1.13714        1.20108
H         -2.99313       -0.44831        2.81376
N         -0.56244        0.64878        0.55838
H         -0.54583       -0.64142        2.25678
H         -1.05227        1.04823        2.58056
H         -1.30304        2.62928        0.65441
H         -0.98735        2.03644       -1.00921
C         -0.46609       -0.51418       -0.39284
H         -1.46455       -0.95508       -0.55089
H          0.20928       -1.27453        0.04145
H         -0.06312       -0.16553       -1.35975
C          0.84497        1.18170        0.87119
C          1.64996        1.73891       -0.30290
H          0.69981        1.96095        1.64691
H          1.38006        0.33428        1.34885
C          3.05312        2.18927        0.16153
H          1.12701        2.60798       -0.75743
H          1.76802        0.97631       -1.10235
C          3.88742        2.78601       -0.97856
H          3.58770        1.31985        0.60534
H          2.94745        2.93506        0.98068
H          4.04029        2.05386       -1.79885
H          4.88798        3.09420       -0.61564
H          3.39944        3.68419       -1.41143
