6
BROMOTRIFLUOROETHYLENE.gamout	Energy:   -2949.5132229
C          1.10356        0.00256        0.04013
C          0.44591        0.84294        0.86672
F          0.48642       -0.83350       -0.78187
F          2.42138       -0.07736       -0.03845
F         -0.89074        0.86598        0.88950
Br         1.32101        2.02968        2.03392
