8
BROMOCHLOROACETIC_ACID.gamout	Energy:   -3261.9206754
Br         1.18831        1.79717       -0.56425
Cl         1.50299       -1.18117        0.36395
O         -1.22021        0.16131        0.87344
O         -1.73383       -0.47516       -1.24676
C          0.57684       -0.07644       -0.69706
C         -0.92319       -0.15298       -0.40134
H          0.74311       -0.37739       -1.74483
H         -2.19633        0.07797        0.95615
