5
BROMODICHLOROMETHANE.gamout	Energy:   -3532.9772332
Br        -1.82615        0.00164        0.14476
Cl         0.90401        1.47634        0.15858
Cl         0.90132       -1.47802        0.15837
C          0.06974       -0.00004       -0.39403
H          0.06792        0.00003       -1.49659
