28
BUTYLPARABEN.gamout	Energy:    -652.8190685
O          1.26163        0.07544        0.05655
O          0.48003        2.20734        0.16883
O         -4.99299       -1.12323       -0.08613
C          3.58022       -0.57290        0.04007
C          5.04874       -0.12002        0.06313
C          2.60722        0.59787        0.08628
C          6.04679       -1.28313        0.02203
C         -1.09082        0.38688        0.05146
C          0.26539        1.00558        0.09925
C         -2.21631        1.24318        0.08969
C         -1.29613       -1.00798       -0.03299
C         -3.51336        0.72775        0.04372
C         -2.59316       -1.53420       -0.08047
C         -3.71111       -0.66978       -0.04262
H          3.38283       -1.17241       -0.87694
H          3.37692       -1.24829        0.90124
H          5.22907        0.49271        0.97594
H          5.23460        0.56482       -0.79548
H          2.73801        1.21222        1.00465
H          2.74749        1.28805       -0.77498
H          5.91163       -1.96173        0.89124
H          5.92099       -1.89586       -0.89629
H          7.09516       -0.92050        0.04088
H         -2.04046        2.32802        0.15514
H         -0.42654       -1.68020       -0.06299
H         -4.39519        1.38553        0.07235
H         -2.74719       -2.62517       -0.14748
H         -4.98063       -2.09812       -0.14502
