77
CAMPESTEROL.gamout	Energy:   -1170.2289916
O         -2.57519       -7.15154        4.15871
C         -0.09191       -0.41749       -0.27619
C         -1.30820       -0.37894        0.70181
C         -2.08614       -1.69843        0.83429
C         -1.12231       -2.83861        1.27871
C          0.40104        1.07131       -0.15470
C          0.85815       -1.51305        0.25935
C         -1.85644       -4.22206        1.39320
C         -2.06481        0.90282        0.31532
C          0.14470       -2.87428        0.39288
C         -0.93515        1.89093       -0.09359
C         -3.26853       -1.55272        1.81293
C          1.40523        1.63009       -1.19935
C         -0.51373       -0.72172       -1.73248
C         -3.15556       -4.05115        2.19793
C         -0.96859       -5.27047        2.15528
C         -3.77140       -2.85867        2.36219
C         -2.20548       -4.79864       -0.00445
C         -3.62902       -5.30292        2.90032
C         -1.20684       -5.24703        3.66985
C          1.72626        3.11979       -0.90655
C         -2.62736       -5.72926        4.01753
C          2.70124        0.80658       -1.30031
C          2.53875        3.83466       -2.00242
C          2.62572        5.37516       -1.86502
C          3.34642        6.03115       -3.08471
C          3.28152        5.76590       -0.52672
C          2.68221        5.68521       -4.43172
C          3.45153        7.56337       -2.95199
H         -0.86105       -0.19156        1.71004
H         -2.50408       -1.96732       -0.16329
H         -0.79235       -2.57397        2.31362
H          0.89485        1.14628        0.84400
H          1.23817       -1.19358        1.25711
H          1.75206       -1.63892       -0.38666
H         -2.75775        0.70885       -0.53240
H         -2.68780        1.29459        1.14521
H         -0.12279       -3.23949       -0.62184
H          0.86700       -3.61637        0.79506
H         -0.85632        2.72997        0.62703
H         -1.14807        2.35510       -1.08085
H         -4.09992       -0.99326        1.32749
H         -2.96052       -0.90711        2.67314
H          0.90220        1.59950       -2.19568
H         -1.17637        0.06332       -2.15059
H          0.37482       -0.78535       -2.39442
H         -1.05472       -1.68467       -1.82407
H         -1.20277       -6.29257        1.78639
H          0.10231       -5.10469        1.91803
H         -4.68705       -2.81982        2.98144
H         -2.74739       -4.06347       -0.63395
H         -1.29448       -5.11970       -0.55196
H         -2.85649       -5.69275        0.09253
H         -3.66873       -6.15215        2.18101
H         -4.65292       -5.17082        3.30984
H         -0.48412       -5.89619        4.20649
H         -1.07136       -4.21549        4.06110
H          0.77390        3.67619       -0.76854
H          2.25357        3.17648        0.07339
H         -2.94206       -5.25885        4.98221
H          3.40771        1.25171       -2.03026
H          3.22154        0.75712       -0.31895
H          2.51284       -0.23319       -1.63140
H          2.07737        3.58162       -2.98124
H          3.57678        3.43153       -2.04329
H          1.57884        5.76934       -1.85951
H         -3.48471       -7.46066        4.33145
H          4.38662        5.62337       -3.10297
H          4.33548        5.41119       -0.48495
H          3.28795        6.86150       -0.36298
H          2.74648        5.31621        0.33376
H          3.20117        6.19949       -5.26767
H          1.62053        6.01787       -4.44844
H          2.69847        4.60052       -4.65801
H          3.92473        8.00504       -3.85402
H          2.44404        8.02350       -2.84708
H          4.05749        7.87741       -2.07894
