53
CANNABIDIOL.gamout	Energy:    -968.0132871
C          0.46516       -0.75074       -2.69287
C          0.96941       -0.44936       -1.30222
C          0.68586       -1.25004       -0.25251
C          1.80123        0.82687       -1.15468
C          3.24296        0.56063       -0.61879
C          1.10500        1.87787       -0.26063
C          3.95664        1.85171       -0.25027
C          4.06900       -0.30683       -1.56509
C          1.86228        3.21388       -0.25336
C          3.35792        3.05136       -0.06959
C          4.46090       -1.62070       -1.19936
C          4.48235        0.14232       -2.84254
C          4.13447        4.29353        0.28965
O          4.09204       -2.06188        0.04326
C          5.20319       -2.44632       -2.06971
O          4.11259        1.40774       -3.21734
C          5.23709       -0.67441       -3.71159
C          5.59915       -1.98153       -3.33877
C          6.41393       -2.85510       -4.27383
C          7.88109       -3.05837       -3.84011
C          8.70032       -3.88378       -4.84333
C         10.15882       -4.11776       -4.42052
C         10.97336       -4.91943       -5.44300
H         -0.15958       -1.66619       -2.72613
H         -0.13691        0.09528       -3.09416
H          1.31671       -0.88727       -3.39671
H          1.06072       -1.03895        0.76247
H          0.07419       -2.15998       -0.37180
H          1.91748        1.28009       -2.16295
H          3.14008       -0.03177        0.31706
H          0.05891        2.03273       -0.60238
H          1.03567        1.47909        0.77626
H          5.05043        1.77294       -0.11486
H          1.45528        3.87839        0.54314
H          1.67725        3.76525       -1.20736
H          5.22456        4.09988        0.35097
H          3.97139        5.09994       -0.46128
H          3.80446        4.71260        1.26752
H          4.39540       -2.98394        0.14017
H          5.46914       -3.46892       -1.75017
H          4.48540        1.58239       -4.10232
H          5.53303       -0.28313       -4.70059
H          5.92508       -3.85114       -4.37266
H          6.39885       -2.40775       -5.29201
H          7.90854       -3.55089       -2.84161
H          8.35890       -2.06334       -3.69380
H          8.68268       -3.37671       -5.83638
H          8.20078       -4.86759       -5.00530
H         10.65010       -3.13397       -4.24219
H         10.17628       -4.64081       -3.43709
H         12.01617       -5.08334       -5.10013
H         10.52275       -5.91854       -5.62685
H         11.02266       -4.39664       -6.42236
