3
CARBON_DIOXIDE.gamout	Energy:    -188.6765742
C         -0.00000        0.00000        0.00000
O          1.17229       -0.00000       -0.00000
O         -1.17228        0.00000        0.00000
