5
CARBON_TETRACHLORIDE.gamout	Energy:   -1878.4446490
C          0.00000        0.00000        0.00000
Cl         1.03587        1.03587        1.03587
Cl        -1.03587       -1.03587        1.03587
Cl        -1.03587        1.03587       -1.03587
Cl         1.03587       -1.03587       -1.03587
