14
CHLOROTHALONIL.gamout	Energy:   -2254.3980097
N          7.91035        3.88433       -1.20764
C          7.19653        2.98311       -0.96865
C          6.32760        1.88233       -0.67657
C          6.86197        0.61341       -0.33777
C          4.91474        2.04845       -0.72310
Cl         8.57553        0.39702       -0.27753
C          6.00771       -0.48043       -0.04777
Cl         4.26485        3.59316       -1.13603
C          4.04719        0.96811       -0.43659
C          6.55364       -1.76000        0.29394
C          4.59797       -0.29103       -0.10037
Cl         2.33427        1.18436       -0.49688
N          7.00204       -2.80856        0.57377
Cl         3.55838       -1.62264        0.25310
