5
CHLOROMETHANE.gamout	Energy:    -499.9733087
H         -0.01179        1.19445        1.63051
C          0.65114        0.98743        0.76966
H          0.50312        1.75443       -0.01343
H          0.43392       -0.01657        0.35949
Cl         2.36198        1.03699        1.32304
