5
CHLORODIBROMOMETHANE.gamout	Energy:   -5646.9960705
Br         1.62079       -0.89310        0.16576
Br        -1.62069       -0.89330        0.16555
Cl        -0.00011        1.74790        0.15342
C          0.00003        0.05750       -0.39727
H          0.00010        0.05042       -1.49938
