10
CHLOROPRENE.gamout	Energy:    -615.3729141
C         -0.10226       -0.01203       -0.00655
C          1.06131        0.67855       -0.04470
C          2.38779        0.05891        0.00657
Cl         1.00848        2.43912       -0.16402
C          3.57636        0.69924       -0.02846
H         -1.07869        0.49035       -0.04734
H         -0.07934       -1.11067        0.06764
H          2.36162       -1.04307        0.08102
H          4.52273        0.13893        0.01612
H          3.62742        1.79675       -0.10267
