2
CHLORINE.gamout	Energy:    -920.1557413
Cl        -0.45794       -0.26929        0.00000
Cl         1.31984        0.77629        0.00000
