6
CHLOROACETONITRILE.gamout	Energy:    -592.1368626
Cl        -2.10887       -0.54699       -0.00000
N          0.54191        2.05354       -0.00011
C         -1.96666        1.25634       -0.00009
C         -0.57374        1.69625       -0.00010
H         -2.48726        1.64017       -0.90035
H         -2.48730        1.64030        0.90009
