8
CHLOROETHANE.gamout	Energy:    -539.2607017
C          2.38107        0.97979        1.39858
C          1.31388        1.97390        0.96924
Cl        -0.02851        2.09704        2.19037
H          2.84685        1.27996        2.35882
H          3.17742        0.93153        0.62502
H          1.95536       -0.03611        1.52344
H          0.83697        1.68366        0.01202
H          1.72293        2.99720        0.85379
