5
CHLOROFORM.gamout	Energy:   -1418.9584992
C         -0.00001        0.00014        0.45484
H          0.00001        0.00045        1.55817
Cl         0.00002        1.70756       -0.08386
Cl         1.47836       -0.85379       -0.08389
Cl        -1.47837       -0.85383       -0.08389
