16
CIS,CIS-2,4-HEXADIENE.gamout	Energy:    -234.4462131
C          0.54959        2.66138        1.27298
C          1.31600        1.37111        1.21362
C          2.66573        1.20801        1.12792
C          3.66666        2.26510        1.07609
C          5.01640        2.10199        0.99058
C          5.78281        0.81171        0.93142
H         -0.05782        2.72112        2.20383
H          1.19941        3.55766        1.23683
H         -0.17338        2.73353        0.42959
H          0.69988        0.45357        1.24377
H          3.04056        0.17013        1.09444
H          3.29182        3.30298        1.10939
H          5.63252        3.01952        0.96034
H          6.50579        0.73972        1.77483
H          5.13300       -0.08456        0.96782
H          6.39023        0.75179        0.00059
