22
CIS-2-METHYLCYCLOHEXANOL.gamout	Energy:    -350.1415240
C          0.01963        1.30158       -0.08118
C         -0.05854       -0.23034        0.03281
C          0.70392       -0.74528        1.26638
C          2.17189       -0.26228        1.29655
C          2.23878        1.28684        1.19058
C          1.47832        1.79410       -0.05254
O          1.78265        1.92758        2.38700
C          2.93200       -0.78255        2.52288
H         -0.48557        1.65284       -1.00647
H         -0.54780        1.76668        0.76024
H         -1.11803       -0.56560        0.06566
H          0.38429       -0.68537       -0.88308
H          0.67730       -1.85600        1.30583
H          0.18616       -0.40436        2.19612
H          2.66628       -0.66032        0.37807
H          3.30651        1.58937        1.11016
H          1.52241        2.90388       -0.07125
H          2.00593        1.43459       -0.96523
H          0.83509        1.71387        2.48830
H          4.00107       -0.48370        2.49202
H          2.89063       -1.89003        2.58830
H          2.49990       -0.36016        3.45326
