24
CIS-1,3-DIMETHYLCYCLOHEXANE.gamout	Energy:    -314.2651982
C          1.03711        2.02748        5.68369
C          1.91483        1.53289        4.52551
C          1.68715        2.35883        3.24160
C          3.41249        1.52905        4.89595
C          2.56056        1.90160        2.05405
C          2.31271        2.75536        0.80244
C          4.04914        1.89075        2.45953
H         -0.04191        1.99530        5.42178
H          1.17954        1.41175        6.59720
H          1.28383        3.07896        5.94952
H          1.62538        0.47743        4.30004
H          1.91183        3.43115        3.46052
H          0.61157        2.32101        2.95578
H          3.58075        0.89010        5.79128
H          2.27286        0.84845        1.81594
H          2.91850        2.40269       -0.05933
H          1.24527        2.73050        0.49632
H          2.58179        3.81907        0.98490
H          4.66833        1.50813        1.61794
C          4.29951        1.06096        3.72990
H          3.70930        2.56366        5.19117
H          4.37693        2.94298        2.63476
H          4.08669       -0.01205        3.51534
H          5.37217        1.11234        4.01798
