10
CIS-CROTONONITRILE.gamout	Energy:    -209.9929368
N          2.07777       -0.50945        0.00000
C         -1.72210       -1.01293       -0.00000
C         -1.34882        0.43524        0.00000
C         -0.08829        0.94261        0.00000
C          1.09504        0.13684        0.00000
H         -2.34637       -1.25467       -0.88827
H         -0.83577       -1.67717       -0.00003
H         -2.34631       -1.25468        0.88830
H         -2.17733        1.16629        0.00001
H          0.07179        2.03421        0.00005
