13
CIS-1,3-PENTADIENE.gamout	Energy:    -195.1529180
C          2.84801        0.47179        1.73316
C          1.49402        1.01745        1.89954
C          1.08786        2.31495        1.86614
C          3.84438        0.93385        0.94010
C          1.93180        3.54090        1.66655
H          3.04583       -0.45155        2.31142
H          0.71964        0.26353        2.13353
H          0.00945        2.49901        2.02852
H          3.71493        1.79873        0.27002
H          4.82247        0.42683        0.91087
H          1.83293        3.93600        0.62941
H          3.00866        3.34299        1.84173
H          1.60200        4.36062        2.34002
