18
CIS-2-HEXENE.gamout	Energy:    -235.6643294
C          3.25353        1.74649        1.28509
C          2.04209        2.55737        1.67418
C          1.48686        2.24230        3.08624
C          4.52294        2.18504        1.12132
C          0.98620        0.80440        3.27403
C          5.04144        3.58833        1.27394
H          3.07494        0.66705        1.12441
H          2.26664        3.64338        1.61442
H          1.23197        2.36922        0.93027
H          2.27802        2.46211        3.83757
H          0.65331        2.94902        3.29789
H          5.28187        1.43140        0.83825
H          0.55547        0.65749        4.28648
H          0.19430        0.54897        2.53669
H          1.80271        0.06143        3.15514
H          5.83876        3.63621        2.04882
H          5.51011        3.94673        0.33019
H          4.25392        4.31426        1.55696
