6
CIS-1,2-DIIODOETHYLENE.gamout	Energy:    -672.9907772
C          0.99534       -0.06718       -0.02708
C          0.32437       -0.51054        1.04774
I          1.14527       -1.24901        2.83464
I          3.08013        0.03158       -0.26280
H          0.45296        0.29892       -0.91294
H         -0.77700       -0.51397        1.05638
