28
cis-DECAHYDRONAPHTHALENE.gamout	Energy:    -391.6194637
C          0.11781        0.80847       -0.70244
C         -1.35497        0.34353       -0.53823
C          1.08158       -1.16073        0.57117
H         -0.39025       -2.79374        0.71218
H         -0.20158       -2.12364       -0.91870
C          0.95904        0.39118        0.51779
H          0.55280        0.37000       -1.62785
H          0.16124        1.90934       -0.84243
C         -1.47424       -0.92098        0.34857
H         -1.96932        1.15991       -0.10093
H         -1.78959        0.13987       -1.54066
C         -0.25767       -1.83995        0.15763
H         -1.55331       -0.63367        1.42054
H         -2.41222       -1.46424        0.11085
C          2.32827        1.09299        0.64431
C          2.25169       -1.69993       -0.28217
H          4.37190       -1.39492       -0.70184
H          3.92435       -1.14120        1.00444
H          0.37628        0.70295        1.41300
C          3.41084        0.53007       -0.28589
H          2.19884        2.18463        0.48101
H          2.68175        0.98003        1.69468
C          3.58293       -0.97383       -0.04355
H          3.13127        0.70365       -1.35043
H          4.36783        1.06891       -0.12411
H          1.29951       -1.42199        1.63226
H          2.36062       -2.79011       -0.09585
H          1.98533       -1.60450       -1.36101
