6
CIS-1,2-DICHLOROETHYLENE.gamout	Energy:    -997.5251495
C          2.15659        1.51168        0.12071
C          0.81049        1.45975        0.09014
Cl         3.19923        0.13094        0.07342
H          2.67627        2.48046        0.17974
H          0.21521        2.38534        0.12398
Cl        -0.12002        0.00338       -0.00233
