9
CYCLOPROPANE.gamout	Energy:    -117.8047750
C         -0.02621        0.87348        0.00000
C         -0.74376       -0.45946       -0.00000
C          0.76985       -0.41416        0.00000
H         -0.04354        1.47676       -0.92273
H         -0.04354        1.47676        0.92273
H         -1.25571       -0.77591        0.92352
H         -1.25571       -0.77591       -0.92352
H          1.29998       -0.69943       -0.92344
H          1.29998       -0.69943        0.92344
