24
CYCLOHEXYL_ACETATE.gamout	Energy:    -463.4162333
O          0.58602       -0.37715       -0.89335
O          1.78663       -0.64576        1.03314
C         -0.58195        0.08670       -0.15907
C         -0.92069        1.50876       -0.62198
C         -1.73805       -0.88784       -0.41473
C         -2.21946        2.00778        0.03904
C         -3.03624       -0.38766        0.24581
C         -3.38886        1.03882       -0.21095
C          1.70040       -0.70846       -0.17983
C          2.81491       -1.16726       -1.10001
H         -0.31572        0.08739        0.92025
H         -1.03974        1.49773       -1.72921
H         -0.07151        2.18821       -0.39603
H         -1.46342       -1.89653       -0.03895
H         -1.88098       -0.98130       -1.51521
H         -2.46515        3.02528       -0.33380
H         -2.05797        2.11040        1.13673
H         -2.90954       -0.39540        1.35278
H         -3.86740       -1.09097        0.02453
H         -4.30446        1.39631        0.30791
H         -3.63116        1.02860       -1.29885
H          2.51331       -1.13856       -2.16262
H          3.11172       -2.19775       -0.81833
H          3.70172       -0.52150       -0.93968
