16
CYCLOHEXENE.gamout	Energy:    -234.4686058
C          0.71721        2.17189        3.01181
C          1.96062        2.01240        3.90415
C          1.09715        2.71281        1.62063
C          2.97197        1.03405        3.27791
C          2.32473        2.03428        1.05590
C          3.15631        1.26928        1.79567
H         -0.03092        2.83723        3.49331
H          0.22604        1.17896        2.89685
H          1.67374        1.67014        4.92139
H          2.44395        3.00751        4.03297
H          1.27477        3.81469        1.66783
H          0.24451        2.59552        0.91425
H          2.64435       -0.02075        3.44443
H          3.95478        1.10965        3.79546
H          2.53633        2.18073       -0.01850
H          4.02121        0.78366        1.30908
