33
CYCLOBARBITAL.gamout	Energy:    -801.5671891
O          0.58558        0.60606        2.42768
O          0.64144        0.71468       -2.38511
O          3.36656       -2.08699       -0.01003
N          1.91929       -0.74614        1.17590
N          1.92510       -0.71623       -1.16863
C          0.25218        0.73129        0.01944
C         -1.18060        0.14336       -0.00818
C         -1.29219       -1.36465        0.16117
C         -2.66287       -1.91749       -0.26435
C          0.29062        2.28407        0.04988
C         -3.80067       -1.05753        0.30316
C         -3.69125        0.38739       -0.20863
C         -2.27641        0.91548       -0.19285
C          0.91709        0.21671        1.31911
C          0.94078        0.26902       -1.28912
C          1.70254        2.88004        0.11285
C          2.47540       -1.25465       -0.00149
H         -0.48976       -1.87162       -0.42021
H         -1.09373       -1.62995        1.22656
H         -2.72647       -1.92554       -1.37577
H         -2.76182       -2.97316        0.06582
H         -0.30101        2.60843        0.92911
H         -0.22322        2.63993       -0.86538
H         -3.74080       -1.06057        1.41484
H         -4.78989       -1.48886        0.04049
H         -4.33704        1.06578        0.39298
H         -4.09200        0.46243       -1.24812
H         -2.16241        2.00053       -0.34317
H          2.24204        2.57630        1.03433
H          2.31707        2.58522       -0.76368
H          1.65285        3.98801        0.11652
H          2.33467       -1.10512        2.04333
H          2.35197       -1.04478       -2.04256
