12
CYCLOBUTANE.gamout	Energy:    -157.0909984
C          1.82620        2.83669        1.05405
C          0.68212        1.79903        0.85639
C          1.72646        0.66472        1.07505
C          2.85273        1.69861        0.77870
H          1.88108        3.19121        2.10521
H          1.84237        3.72474        0.38794
H          0.29749        1.80709       -0.18562
H         -0.18680        1.84438        1.54595
H          1.66330       -0.23410        0.42653
H          1.74828        0.32762        2.13312
H          3.15985        1.67346       -0.28839
H          3.76950        1.66414        1.40382
