5
DCA-1.gamout	Energy:    -240.3196496
N         -0.28786       -0.05719        0.00020
N          2.20199       -0.29323        0.00020
N          3.76640       -2.24431        0.00020
C          0.89020       -0.24507        0.00020
C          2.96256       -1.36280        0.00020
