3
DEUTERIUM_OXIDE.gamout	Energy:     -76.3591397
O          0.85393        0.00479        0.00000
H          1.70554        0.48118        0.00000
H          1.14054       -0.92800        0.00000
