24
DGLUCOSE.gamout	Energy:    -686.6743567
O          1.06564        0.25156       -0.10206
O          2.27240       -2.34412       -0.07731
O          4.68807       -2.52593       -1.60647
O          6.36629       -0.24396       -1.46296
O          3.06432        1.19080       -0.76799
O          4.54342        3.54655       -0.71022
C          2.45239        0.10507       -0.07268
C          2.79059       -1.21914       -0.77287
C          4.30649       -1.38256       -0.85258
C          4.95281       -0.15908       -1.50757
C          4.50348        1.11682       -0.77621
C          4.99160        2.41149       -1.42403
H          0.82482        0.99641        0.48130
H          1.30451       -2.21620       -0.03122
H          4.22223       -3.28551       -1.20380
H          6.58193       -1.14846       -1.76853
H          3.57865        3.41578       -0.61270
H          2.84581        0.07564        0.98037
H          2.37913       -1.15104       -1.81044
H          4.69885       -1.45484        0.19474
H          4.58092       -0.10401       -2.56346
H          4.88072        1.08070        0.27680
H          6.10024        2.41381       -1.42506
H          4.65262        2.41831       -2.49193
