27
DI-N-BUTYL_SULFIDE.gamout	Energy:    -713.5627076
S         67.97397        9.87115        0.00000
C         66.35679        8.99788        0.00002
C         69.12788        8.44087       -0.00001
C         70.57700        8.94243       -0.00003
C         71.61696        7.81042        0.00000
C         73.06228        8.32326        0.00000
C         65.21485       10.02226        0.00001
C         63.81711        9.38059        0.00000
C         62.68299       10.41372       -0.00001
H         66.29307        8.34324       -0.89767
H         66.29307        8.34326        0.89773
H         68.93161        7.81266        0.89762
H         68.93159        7.81266       -0.89764
H         70.73553        9.59448       -0.88889
H         70.73554        9.59455        0.88878
H         71.45173        7.15775        0.88750
H         71.45174        7.15771       -0.88746
H         73.79550        7.49058        0.00002
H         73.26877        8.94982       -0.89421
H         73.26876        8.94985        0.89419
H         65.32194       10.68367        0.88920
H         65.32195       10.68367       -0.88917
H         63.71744        8.71559       -0.88780
H         63.71743        8.71559        0.88780
H         61.68518        9.92818       -0.00003
H         62.73603       11.07025        0.89457
H         62.73607       11.07027       -0.89457
