28
DI-N-BUTYLAMINE.gamout	Energy:    -370.7606552
C         -0.13454       10.10402        0.02816
C          1.13891        9.24898        0.01176
C          2.43221       10.07614       -0.01167
C          3.71184        9.23187       -0.03604
N          4.90710       10.06840       -0.00323
C          6.16622        9.33268       -0.03410
C          7.37338       10.27824       -0.01138
C          8.72970        9.55898        0.01400
C          9.92848       10.51648        0.02599
H         -1.04944        9.47601        0.04920
H         -0.16449       10.76771        0.91875
H         -0.19734       10.75499       -0.87022
H          1.11911        8.56866       -0.87012
H          1.14907        8.58069        0.90296
H          2.47550       10.75038        0.87266
H          2.42231       10.74761       -0.90309
H          3.68264        8.53424       -0.92002
H          3.73202        8.56907        0.86046
H          4.88006       10.72591       -0.79594
H          6.20094        8.67230        0.86375
H          6.25613        8.63767       -0.91612
H          7.32837       10.94545       -0.90485
H          7.27523       10.94993        0.87033
H          8.77562        8.89578        0.90776
H          8.80524        8.87921       -0.86513
H         10.89255        9.96725        0.04858
H          9.93560       11.16684       -0.87501
H          9.90236       11.18387        0.91382
