22
DI-N-PROPYLDISULFIDE.gamout	Energy:   -1033.1134380
C          0.34060        0.40850       -0.73291
C          1.26269        1.03261        0.32440
C          1.14925        2.56210        0.36941
S          2.29721        3.22350        1.66831
S          1.90918        5.26814        1.66830
C          3.05714        5.92954        0.36940
C          2.94370        7.45902        0.32439
C          3.86583        8.08317       -0.73287
H          0.43495       -0.69716       -0.74438
H         -0.72544        0.65132       -0.53686
H          0.58382        0.77443       -1.75326
H          2.31844        0.74793        0.11706
H          1.01811        0.62003        1.32859
H          0.11733        2.88311        0.62398
H          1.41936        3.00874       -0.61139
H          4.08907        5.60855        0.62398
H          2.78704        5.48290       -0.61141
H          1.88795        7.74371        0.11703
H          3.18821        7.87162        1.32860
H          3.77142        9.18882       -0.74433
H          4.93186        7.84037       -0.53678
H          3.62265        7.71727       -1.75324
