39
DI-N-HEXYL_ETHER.gamout	Energy:    -547.7404201
C          4.52431        0.95117        7.25708
O          4.74805        1.82059        6.15869
C          4.25837        1.31094        4.92949
C          5.06253        1.56224        8.55099
C          4.49726        2.34611        3.83118
C          6.59580        1.65222        8.67564
C          4.08199        1.88797        2.42208
C          7.27251        2.73873        7.82341
C          2.57204        1.67043        2.22433
C          8.79691        2.79736        8.00556
C          2.18236        1.30210        0.78411
C          9.47394        3.89024        7.16850
C          0.67595        1.08686        0.59137
H          5.00806       -0.04440        7.07244
H          3.42685        0.74895        7.36573
H          4.76854        0.34561        4.67123
H          3.16777        1.07275        5.02405
H          4.60804        2.57066        8.67700
H          4.66808        0.94041        9.38482
H          5.57875        2.60346        3.83812
H          3.95681        3.27950        4.10518
H          6.85239        1.82663        9.74562
H          7.03687        0.65841        8.42620
H          4.43255        2.64821        1.68867
H          4.62707        0.95116        2.16018
H          7.02217        2.57577        6.75348
H          6.83110        3.72945        8.08196
H          2.02769        2.59544        2.52759
H          2.20728        0.87292        2.91110
H          9.03533        2.95181        9.08332
H          9.23439        1.80579        7.74574
H          2.73226        0.38184        0.48061
H          2.53811        2.10122        0.09414
H         10.57367        3.90285        7.31913
H          9.28575        3.74189        6.08353
H          9.08911        4.89864        7.43295
H          0.10053        2.00184        0.84927
H          0.42928        0.82255       -0.45794
H          0.29865        0.26767        1.24048
