26
DIALLYL_MALEATE.gamout	Energy:    -688.6188915
C          0.10568       49.02449       -0.05056
C          1.13400       49.97322        0.50159
C          0.30210       47.72795       -0.37796
O          2.02304       50.36196       -0.43857
O          1.09196       50.37117        1.65118
C          3.05708       51.29610       -0.00863
C          2.68686       52.70550       -0.38123
C          2.52851       53.70164        0.50837
C          1.62613       47.05327       -0.28237
O          1.55284       45.80664       -0.82738
O          2.63648       47.52453        0.21706
C          2.77823       45.02288       -0.81271
C          2.91585       44.23533        0.46103
C          2.93717       42.89190        0.51855
H         -0.91596       49.44058       -0.09647
H         -0.54134       47.10691       -0.71882
H          3.21263       51.19257        1.08332
H          3.96692       50.96070       -0.54823
H          2.54029       52.89665       -1.46039
H          2.26949       54.72420        0.18875
H          2.65327       53.53035        1.59127
H          2.71081       44.35763       -1.69603
H          3.63549       45.72008       -0.92899
H          3.02014       44.83586        1.38261
H          3.06419       42.35723        1.47376
H          2.83643       42.27256       -0.39003
