40
DIAZINON.gamout	Energy:   -1543.9899682
S          1.72811        0.72448        2.08662
P          1.86961        0.15376        0.23998
O          0.84355       -1.05516       -0.30749
O          1.70181        1.22675       -0.96353
O          3.27572       -0.54773       -0.19861
N         -1.10696        0.16585        0.04946
N         -3.24746       -0.89030       -0.14244
C         -3.12142        1.48591        0.48371
C         -2.45727        0.17127        0.10171
C         -2.80095        2.58187       -0.55234
C         -2.69325        1.90384        1.90504
C         -0.52245       -0.98949       -0.25177
C         -2.64503       -2.05967       -0.46403
C         -1.24391       -2.16487       -0.52985
C         -3.53659       -3.24592       -0.74159
C          2.20935        2.58019       -0.83087
C          3.94807       -1.49667        0.66520
C          1.65757        3.40516       -1.98023
C          5.40593       -1.57899        0.24437
H         -4.21255        1.28218        0.47209
H         -1.70389        2.73209       -0.62570
H         -3.26606        3.54555       -0.25720
H         -3.17938        2.31272       -1.56019
H         -2.98521        1.14006        2.65522
H         -3.16980        2.86461        2.19233
H         -1.59156        2.02608        1.95705
H         -0.72646       -3.10192       -0.78127
H         -3.30798       -4.08656       -0.05313
H         -4.59497       -2.95207       -0.61459
H         -3.38731       -3.62333       -1.77535
H          1.90036        2.98586        0.15714
H          3.32126        2.54641       -0.85670
H          3.84516       -1.16071        1.72102
H          3.44184       -2.48270        0.56711
H          2.03439        4.44622       -1.91034
H          1.97026        2.98541       -2.95776
H          0.54981        3.43117       -1.95083
H          5.94280       -2.30990        0.88355
H          5.49991       -1.90471       -0.81145
H          5.90150       -0.59299        0.35160
