5
DIBROMODIFLUOROMETHANE.gamout	Energy:   -5385.8283704
C         -0.86673       -0.21052        1.01667
Br        -0.48271        1.63350        0.44210
Br         0.76766       -1.12171        1.62542
F         -1.39746       -0.88713       -0.00592
F         -1.75163       -0.18323        2.01696
