30
DIBUTYLANION-1.gamout	Energy:    -558.6519509
C         -2.08038        1.53616       -0.17444
C         -0.45591        2.71561       -1.64403
N         -0.89215        1.49852       -1.00082
C         -3.40452        1.44722       -0.97314
H         -2.06321        2.45600        0.46140
H         -2.03833        0.65259        0.49799
C         -4.69128        1.50156       -0.13130
C         -4.96055        2.84914        0.55794
H         -4.65619        0.69714        0.64002
H         -5.56352        1.25229       -0.77988
H         -5.00977        3.67660       -0.18491
H         -4.15842        3.10972        1.28090
C          0.46591        3.60011       -0.76956
H          0.10473        2.38446       -2.54640
H         -1.32519        3.34061       -1.98493
C          1.82064        2.94349       -0.47346
C          2.67886        3.71538        0.53481
H          2.37542        2.81089       -1.42861
H          1.62677        1.91220       -0.10906
H          2.16684        3.80034        1.51903
H          2.88833        4.75346        0.18974
H         -3.43368        2.25276       -1.74483
H         -0.05112        3.82821        0.19460
C         -0.46908        0.18450       -1.56047
O          0.47597        0.24054       -2.38976
O         -1.11436       -0.80134       -1.11276
H         -3.35267        0.47871       -1.51465
H          0.62244        4.58781       -1.27101
H         -5.92258        2.84465        1.11669
H          3.65900        3.22139        0.71412
