5
DICHLORODIFLUOROMETHANE.gamout	Energy:   -1157.7959539
C          0.95061        0.90037        0.00019
Cl         0.05466        2.45083       -0.02381
F          2.26625        1.14933       -0.01187
Cl         0.54249       -0.06132        1.45456
F          0.64539        0.19549       -1.09680
