5
DICHLOROMONOBROMOMETHANE.gamout	Energy:   -3532.9772374
C          0.90248        1.00375        0.03444
Br        -0.83763        1.92633       -0.03501
Cl         2.25580        2.16377       -0.02631
Cl         1.01343       -0.07253        1.45199
H          0.94616        0.37952       -0.87317
