8
DICHLOROACETIC_ACID.gamout	Energy:   -1147.8993612
C          0.40350        0.22525        0.20134
C         -1.11858        0.22824       -0.03938
Cl        -1.76953       -1.34087        0.57736
Cl        -1.87614        1.63774        0.74046
O          1.01749       -0.34823       -0.86187
O          0.96928        0.64745        1.18258
H         -1.34681        0.26297       -1.11986
H          1.97632       -0.37332       -0.64413
