16
DIETHYL_DISULFIDE.gamout	Energy:    -954.5479213
C          0.08736        0.18956        0.09714
C          1.32395        1.08816        0.03773
S          1.06514        2.39445       -1.25643
S          2.86547        3.43755       -1.25645
C          2.60673        4.74379        0.03780
C          3.84334        5.64237        0.09714
H          0.22744       -0.59930        0.86571
H         -0.82413        0.76384        0.36465
H         -0.09784       -0.31301       -0.87507
H          2.23341        0.51355       -0.23359
H          1.50547        1.58529        1.01336
H          1.69726        5.31841       -0.23347
H          2.42530        4.24658        1.01340
H          3.70333        6.43123        0.86573
H          4.75483        5.06806        0.36458
H          4.02848        6.14496       -0.87506
