16
DIETHYL_KETONE.gamout	Energy:    -271.5772673
C          0.68842        0.02178       -2.26000
C          0.45506        0.93547       -1.05796
C          0.66601        2.42102       -1.36097
C          0.44254        3.39730       -0.20353
O          0.99640        2.80829       -2.47316
C          0.68822        4.85927       -0.57368
H          0.52602       -1.04174       -1.99219
H          0.00500        0.28019       -3.09351
H          1.72173        0.13088       -2.64589
H          1.12318        0.66871       -0.20633
H         -0.57509        0.81855       -0.64841
H          1.09550        3.07451        0.64036
H         -0.59488        3.24004        0.17294
H          0.51682        5.52637        0.29504
H          0.01755        5.17836       -1.39650
H          1.72710        5.00805       -0.93015
