23
DIETHYL_MALONATE.gamout	Energy:    -574.4723759
C          0.31517       29.95831       -0.42307
C          1.21444       28.96289        0.29865
O          2.44420       29.59794        0.73914
C          3.47857       29.58866       -0.13901
C          4.64030       30.40689        0.40480
O          3.47795       29.00870       -1.20766
C          4.40082       31.90467        0.22454
O          5.37951       32.60778        0.84706
O          3.48021       32.39926       -0.39827
C          6.09224       34.50903       -0.53720
C          5.33586       34.05362        0.70414
H         -0.64558       29.47252       -0.69312
H          0.09483       30.83463        0.21931
H          0.79591       30.32069       -1.35319
H          1.47450       28.10565       -0.35527
H          0.74480       28.58795        1.23023
H          4.80964       30.19588        1.48017
H          5.55745       30.12871       -0.15213
H          6.11483       35.61769       -0.58149
H          7.13885       34.14225       -0.52362
H          5.59726       34.14066       -1.45794
H          4.27455       34.37356        0.66991
H          5.80639       34.43568        1.63202
