4
DIFLUOROAMINE.gamout	Energy:    -254.6993550
F          0.09662       29.95778        0.10088
N          1.20104       29.16403       -0.26663
H          1.19614       28.48304        0.52514
F          2.32235       29.93589        0.09684
