14
DIHYDROPYRAN.gamout	Energy:    -270.3436473
C          2.80139        3.37751        1.21244
C          3.53875        2.16982        1.82132
C          1.39048        2.98055        0.84597
C          3.21680        0.90349        1.02252
C          1.00117        1.68473        0.80937
O          1.81109        0.60541        1.01624
H          3.35018        3.76231        0.31981
H          2.78756        4.22306        1.93604
H          3.21265        2.01698        2.87328
H          4.63794        2.32746        1.84010
H          0.63533        3.75478        0.63944
H          3.71145        0.00632        1.44569
H          3.55585        1.02201       -0.03474
H         -0.03670        1.37068        0.61118
