24
DIISOPROPANOLAMINE.gamout	Energy:    -442.5151314
O          0.03011       27.67402        0.75605
C          1.26111       27.28118        0.14679
C          1.91154       28.58835       -0.33153
C          2.14002       26.48706        1.11952
N          3.16333       28.35886       -1.04297
C          3.69081       29.52966       -1.73311
O          5.21208       30.39360       -3.31622
C          4.90471       29.18982       -2.60978
C          6.11313       28.69166       -1.80840
H         -0.41776       26.86193        1.05676
H          1.07591       26.65009       -0.75954
H          1.19474       29.08138       -1.02291
H          2.00354       29.27224        0.55578
H          3.07640       26.14245        0.63145
H          1.61320       25.57522        1.47612
H          2.39821       27.10144        2.00843
H          3.86783       28.00967       -0.38044
H          2.90123       29.93044       -2.40490
H          3.98128       30.37843       -1.05494
H          5.96425       30.19951       -3.90529
H          4.58346       28.38179       -3.31527
H          6.97923       28.49610       -2.47713
H          5.89406       27.73691       -1.28448
H          6.42379       29.45140       -1.05966
