28
DIISOBUTYLAMINE.gamout	Energy:    -370.7621920
C          0.17793       31.31645       -0.56115
C          1.61925       31.29260       -0.02210
C          2.13382       32.71705        0.24409
C          1.75651       30.42542        1.24537
N          1.42540       29.02411        1.01777
C          1.64778       28.15281        2.16690
C          1.33036       26.67603        1.85575
C          2.21094       26.13427        0.71826
C          1.44212       25.81761        3.12610
H          0.09982       31.96148       -1.46134
H         -0.17267       30.30541       -0.85841
H         -0.52912       31.71713        0.19903
H          2.26453       30.81971       -0.79757
H          3.18853       32.71274        0.59180
H          2.08465       33.34143       -0.67247
H          1.52609       33.22439        1.02524
H          2.81371       30.46955        1.59353
H          1.15182       30.89645        2.07271
H          0.44273       28.94275        0.72291
H          2.72132       28.23643        2.46044
H          1.06539       28.46769        3.07722
H          0.26661       26.63729        1.51480
H          1.90975       25.10667        0.42521
H          2.15049       26.79443       -0.16973
H          3.27699       26.09630        1.03367
H          1.17859       24.75879        2.92230
H          0.77124       26.18453        3.93165
H          2.48102       25.83118        3.52294
