28
DIISOBUTYL_KETONE.gamout	Energy:    -428.7088961
C          4.74755        2.46778        2.68716
C          3.56765        3.42429        2.50865
C          5.37606        1.94613        1.38289
C          2.70646        3.67629        3.74937
O          3.32633        3.96190        1.43527
C          6.74412        1.29840        1.65203
C          4.42853        0.98164        0.64899
C          1.80726        4.92265        3.67250
C          2.63546        6.21634        3.75361
C          0.71127        4.88947        4.75084
H          4.44211        1.62911        3.35572
H          5.50191        3.03745        3.28230
H          5.52843        2.83235        0.72654
H          2.08598        2.75598        3.87315
H          3.35901        3.69909        4.65318
H          7.21292        0.94305        0.71051
H          6.65068        0.41850        2.32680
H          7.44995        2.01077        2.13005
H          3.46675        1.47448        0.40225
H          4.21146        0.08435        1.27018
H          4.87785        0.62591       -0.30181
H          1.32175        4.89779        2.67138
H          3.40093        6.25778        2.95216
H          3.15522        6.29901        4.73394
H          1.98982        7.11264        3.64360
H          1.14817        4.89789        5.77383
H          0.07682        3.98160        4.66592
H          0.04483        5.77342        4.66807
