13
DIMETHYL_SULFATE.gamout	Energy:    -778.4589803
C          0.30717        0.92570        0.26189
O          1.71508        1.24825        0.26540
S          2.70551        0.19688       -0.54164
O          2.02068       -0.32126       -1.72529
O          4.00757        0.86201       -0.56280
O          2.73982       -1.08053        0.50817
C          3.54114       -0.90517        1.69716
H         -0.17873        1.74577        0.82334
H         -0.08667        0.88551       -0.77374
H          0.11803       -0.04271        0.77129
H          3.46079       -1.86408        2.24269
H          4.59847       -0.70144        1.43373
H          3.14555       -0.07966        2.32582
