24
DIMETHYL_TEREPHTHALATE.gamout	Energy:    -687.5096938
O          1.46870        1.15535        7.60415
C          1.65976        2.35291        6.98974
O          1.14760        3.39220        7.37404
C          2.56518        2.23895        5.79993
C          0.61081        1.18521        8.75607
C          2.84371        3.41605        5.07167
C          3.13732        1.01220        5.39400
C          3.68278        3.37280        3.95169
C          3.97632        0.96894        4.27395
C          4.25493        2.14605        3.54576
C          5.16016        2.03206        2.35580
O          5.35144        3.22967        1.74157
O          5.67206        0.99271        1.97131
C          6.20905        3.19976        0.58945
H         -0.40014        1.55219        8.48462
H          0.55879        0.14419        9.12327
H          1.02630        1.85188        9.53936
H          2.38616        4.35912        5.40735
H          2.91761        0.09839        5.96438
H          3.90260        4.28664        3.38139
H          4.43373        0.02583        3.93821
H          6.26061        4.24068        0.22191
H          7.22021        2.83323        0.86077
H          5.79365        2.53264       -0.19352
