11
DIMETHYLDICHLOROSILANE.gamout	Energy:   -1289.5183714
Cl        -1.69363       -1.14848        0.00019
Cl         1.69422       -1.14777        0.00268
Si         0.00004        0.08602        0.00029
C          0.00103        1.10145       -1.57804
C         -0.00157        1.10668        1.57536
H          0.00193        0.44085       -2.46895
H         -0.90030        1.74805       -1.62548
H          0.90210        1.74849       -1.62401
H         -0.90301        1.75341        1.61875
H         -0.00221        0.44947        2.46877
H          0.89941        1.75390        1.62044
