10
DIMETHYL_SULFOXIDE.gamout	Energy:    -552.9861727
C          0.82811        1.31385        0.61137
S          2.40189        2.08828       -0.00027
C          3.54225        1.03210        1.01759
O          2.46017        3.48504        0.59629
H          0.79173        1.42241        1.71373
H          0.00790        1.89619        0.14932
H          0.76834        0.25115        0.30142
H          4.55877        1.43038        0.83344
H          3.27758        1.15983        2.08617
H          3.48308       -0.02924        0.70289
