9
DIMETHYL_ETHER.gamout	Energy:    -154.9040699
C          2.83068        1.00421        1.05326
O          1.80553        1.71484        1.70681
C          0.68602        1.93280        0.88112
H          3.66641        0.87674        1.77033
H          2.49697       -0.01042        0.71656
H          3.21759        1.54781        0.15388
H         -0.06695        2.49296        1.47130
H          0.93832        2.53383       -0.02977
H          0.22058        0.97526        0.53394
