11
DIOXOLANE.gamout	Energy:    -268.1439435
O         -0.69706       -0.92734       -0.51795
O         -0.29140        1.21927        0.20857
C          0.70093       -0.80100       -0.26336
C          0.73930        0.37499        0.71751
C         -1.25700        0.37263       -0.39942
H          1.07033       -1.75860        0.15638
H          1.27328       -0.56774       -1.19542
H          0.51973        0.03516        1.76008
H          1.69252        0.94150        0.71643
H         -2.18702        0.28759        0.21600
H         -1.51473        0.81110       -1.39581
