24
DIPHENYLAMINE.gamout	Energy:    -518.2798552
C          0.45066       -1.33819        0.40564
C          1.06043       -2.61514        0.30006
C         -0.87446       -1.26395        0.90573
N          1.20107       -0.20714        0.06207
C          0.36838       -3.77459        0.67482
C         -0.95353       -3.69722        1.15005
C         -1.56186       -2.43458        1.26139
C          1.32472        3.44727       -0.58800
C          1.67882        2.15687       -0.17153
C          0.06138        3.69532       -1.15468
C          0.77911        1.07028       -0.32624
C         -0.48513        1.32204       -0.91742
C         -0.83327        2.62247       -1.31432
H          2.08972       -2.69016       -0.08918
H         -1.35637       -0.28510        1.03984
H          2.21362       -0.33405        0.09649
H          0.86757       -4.75264        0.58315
H         -1.50016       -4.60947        1.43388
H         -2.59045       -2.35117        1.64822
H          2.04455        4.27122       -0.45696
H          2.66516        1.97811        0.28860
H         -0.22028        4.71109       -1.47171
H         -1.18603        0.49296       -1.09067
H         -1.82105        2.79284       -1.77237
