21
EMPY+1.gamout	Energy:    -366.3350373
C         -3.47197        1.77134        0.01560
C         -3.27647        0.26544        0.07058
H         -3.08520        2.21922       -0.92190
H         -3.02904        2.29312        0.88796
H         -4.56231        1.96729        0.04290
N         -1.84443       -0.21316        0.03953
H         -3.77559       -0.22971       -0.78761
H         -3.71151       -0.15769        0.99902
C         -1.63406       -1.55948        0.05841
C         -0.79606        0.65162       -0.00584
C         -0.33883       -2.07128        0.02909
H         -2.53002       -2.19628        0.09522
C          0.53774        0.20760       -0.02933
H         -1.04381        1.72095       -0.02017
C          0.75233       -1.18913       -0.00930
H         -0.19266       -3.16138        0.03497
H          1.77941       -1.58774       -0.02508
C          1.67688        1.19041       -0.07508
H          1.32397        2.23902       -0.08715
H          2.30287        1.02435       -0.97662
H          2.34126        1.05857        0.80448
