18
EPY+1.gamout	Energy:    -327.0425738
N          0.18371        0.78078        0.75825
C          0.56845        1.93582        1.37708
C          0.09790        3.17294        0.94451
C         -0.78708        3.23068       -0.14848
C         -0.67079        0.81748       -0.29903
C         -1.17187        2.03377       -0.77181
H          1.26221        1.82588        2.22416
H          0.42766        4.08285        1.46709
H         -1.17257        4.19802       -0.50568
H         -1.86290        2.02659       -1.62747
H         -0.94090       -0.14418       -0.75354
C          0.74287       -0.51553        1.29284
C          0.30112       -1.77336        0.56377
H          0.62368       -1.79109       -0.49697
H         -0.79265       -1.94563        0.62459
H          0.78901       -2.63511        1.06193
H          0.44444       -0.55186        2.36132
H          1.84582       -0.40317        1.25634
