42
ESTRONE.gamout	Energy:    -849.0065541
O         -4.97335       -1.24402       -0.28742
O          5.91568       -0.20262        0.22399
C         -2.01823        0.70697       -0.25616
C         -2.66649       -0.59053        0.29899
C         -0.53066        0.81840        0.09725
C          0.21112       -0.41670       -0.49276
C         -1.96198       -1.81131       -0.31210
C         -3.02572        1.82113        0.10345
C         -0.43795       -1.75583       -0.05849
C          0.14397        2.10426       -0.40177
C         -4.14265       -0.37619       -0.09334
C         -4.38662        1.14827       -0.19443
C         -2.67780       -0.67684        1.85089
C          1.72369       -0.34284       -0.25059
C          1.57984        2.19646        0.12748
C          2.36672        0.90099       -0.00985
C          2.53704       -1.49900       -0.31800
C          3.76783        0.94630        0.14994
C          3.92730       -1.45372       -0.16035
C          4.55711       -0.21564        0.07605
H         -2.06118        0.60514       -1.37033
H         -0.41972        0.79423        1.20801
H          0.06133       -0.34694       -1.60083
H         -2.15197       -1.82233       -1.40862
H         -2.38914       -2.75543        0.08750
H         -2.87077        2.74990       -0.48217
H         -2.94398        2.09878        1.17666
H         -0.21348       -1.93921        1.01580
H          0.03410       -2.59645       -0.60858
H         -0.43033        3.00021       -0.08332
H          0.14104        2.10853       -1.51623
H         -4.72930        1.34979       -1.23348
H         -5.22507        1.45289        0.46588
H         -1.65405       -0.74823        2.26943
H         -3.16753        0.19873        2.32471
H         -3.23990       -1.58137        2.16119
H          1.55213        2.47160        1.20815
H          2.12878        3.02300       -0.37412
H          2.07424       -2.47871       -0.51041
H          4.25595        1.92008        0.33861
H          4.54041       -2.36564       -0.22000
H          6.19944        0.71812        0.38137
