45
ESTRIOL.gamout	Energy:    -925.3636309
O         -4.75246        1.54093       -0.18030
O         -5.21649       -1.47733        0.60444
O          6.16373       -0.01744       -0.32491
C         -2.39174        0.79190       -0.18745
C         -1.77309       -0.56307        0.27200
C         -0.29171       -0.69784       -0.09723
C          0.50051        0.46432        0.56853
C         -3.84386        0.56586        0.28983
C         -1.62361        1.93334        0.50719
C         -2.80005       -1.63187       -0.17444
C         -4.17331       -0.88363       -0.16378
C         -0.10650        1.85000        0.23319
C          0.34075       -2.03635        0.31330
C         -2.38179        0.99643       -1.71983
C          2.00549        0.35234        0.29793
C          1.76176       -2.14857       -0.25104
C          2.59940       -0.89334       -0.05184
C          2.85972        1.46851        0.43701
C          3.99079       -0.98023       -0.25066
C          4.24513        1.38221        0.23620
C          4.82283        0.14554       -0.11369
H         -1.80723       -0.53833        1.38944
H         -0.18505       -0.60289       -1.20459
H          0.35671        0.32080        1.67042
H         -3.82414        0.55846        1.41582
H         -1.80310        1.86488        1.60501
H         -2.01544        2.92262        0.18614
H         -2.57159       -2.02068       -1.18977
H         -2.83411       -2.51197        0.50036
H         -4.59054       -0.82638       -1.19137
H          0.11103        2.09105       -0.83075
H          0.40136        2.63765        0.82850
H         -0.27368       -2.89140       -0.04039
H          0.36258       -2.10081        1.42582
H         -1.36209        1.17967       -2.11100
H         -2.79311        0.12678       -2.27128
H         -3.01152        1.87246       -1.97327
H          1.70319       -2.35631       -1.34538
H          2.29256       -3.02239        0.18526
H         -5.64797        1.20286        0.01700
H         -4.91658       -1.48401        1.53520
H          2.43848        2.44628        0.71610
H          4.45411       -1.94254       -0.52217
H          4.88004        2.27761        0.35370
H          6.60240        0.84425       -0.19138
