8
ETHANE.gamout	Energy:     -79.7628985
H          0.53195        1.77597       -0.01254
C          0.71579        0.89806        0.64229
H          0.48129       -0.00985        0.04701
H         -0.02228        0.94654        1.47055
C          2.15491        0.87436        1.16602
H          2.33943       -0.00491        1.81884
H          2.89319        0.82867        0.33780
H          2.38842        1.78102        1.76359
