17
ETHYL_PROPIONATE.gamout	Energy:    -346.7618487
O          4.50780        1.10531        1.24073
C          3.32887        1.76925        1.09994
C          2.15209        0.80690        1.18030
O          3.25085        2.97358        0.93386
C          5.70513        1.91669        1.17220
C          0.80086        1.49305        0.98291
C          6.90365        0.99831        1.33226
H          2.21250        0.28975        2.16372
H          2.32737        0.00657        0.42800
H          5.65804        2.69223        1.96736
H          5.71543        2.45956        0.20208
H          0.63201        2.27151        1.75362
H          0.74786        1.99391       -0.00450
H         -0.02665        0.75765        1.04469
H          6.87741        0.47329        2.30887
H          6.93134        0.23297        0.52984
H          7.84258        1.58664        1.28116
