58
ETHYL_LINOLEATE.gamout	Energy:    -933.5309959
C         20.15835        6.79846        0.35903
O         18.89295        7.14723        0.94141
O         17.86896        6.14615       -0.82063
H         20.25217        5.69868        0.24688
H         20.27489        7.25872       -0.64382
H         20.93031        7.18247        1.05077
C         17.79867        6.75052        0.23387
C         16.52079        7.16951        0.94135
H          8.79141        8.29994        0.96846
H         -6.16024        7.71937        0.99609
H         -5.35895        7.71682       -0.60501
C         15.24644        6.73074        0.21246
H         16.56072        6.76318        1.97697
H         16.56098        8.27481        1.07046
C         13.95364        7.17036        0.91815
H         15.26113        5.62435        0.09806
H         15.26968        7.13022       -0.82524
C         12.66650        6.72529        0.20011
H         13.94688        6.77520        1.96113
H         13.94953        8.28096        1.02152
C         11.36958        7.17463        0.89659
H         12.66697        5.61461        0.10231
H         12.67629        7.11505       -0.84449
C         10.07929        6.72970        0.18389
H         11.36190        6.79003        1.94338
H         11.37054        8.28612        0.98825
C          8.78640        7.18859        0.87992
H         10.07263        5.61823        0.09278
H         10.08706        7.11307       -0.86337
C          7.49206        6.75117        0.16972
H          8.77508        6.80654        1.92723
C          6.22637        7.21826        0.87028
H         -5.41608        6.21681        0.36794
H         -3.89255        8.80789        1.17683
H         -3.94955        7.32149        2.14261
C          4.96060        6.98740        0.46365
H         -2.79502        6.05924        0.26853
H         -2.73806        7.54670       -0.69767
C          3.70565        7.46861        1.17515
H          7.48321        5.63995        0.07288
H          6.37725        7.80401        1.79968
C          2.39952        7.07861        0.50065
H         -0.16088        7.39615       -0.77738
H         -0.21893        5.91097        0.18307
C          1.16449        7.40087        0.93890
C         -3.96360        7.69906        1.09440
C         -2.72616        7.16917        0.35172
C         -0.14692        7.02039        0.27272
H         -1.37686        7.16835        2.06059
H          2.48951        6.48271       -0.42957
C         -1.39060        7.54651        1.01195
H         -1.32200        8.65602        1.09536
H          1.08052        7.99928        1.86869
C         -5.29335        7.31955        0.43079
H          3.70813        7.09098        2.22515
H          3.74612        8.57883        1.27943
H          7.50539        7.13184       -0.87875
H          4.80160        6.40559       -0.46614
