18
ETHYLCYCLOBUTANE.gamout	Energy:    -235.6602327
C          3.96042        0.98000        1.14198
C          5.24066        1.82243        1.20606
C          2.73205        1.68000        1.72409
C          1.33661        0.99343        1.61264
C          2.12589        2.91858        0.98945
C          0.70751        2.38980        1.34525
H          4.11362        0.01818        1.68312
H          3.74587        0.70076        0.08429
H          5.12771        2.77662        0.64854
H          5.50315        2.08239        2.25422
H          6.10858        1.28468        0.77041
H          2.93028        1.94502        2.78825
H          1.28534        0.34178        0.71349
H          0.97134        0.41160        2.48484
H          2.41073        3.93140        1.34346
H          2.32002        2.86659       -0.10430
H         -0.08208        2.46260        0.56892
H          0.31857        2.85167        2.27686
