14
ETHYLENE_GLYCOL_DINITRATE.gamout	Energy:    -638.7698366
C         69.91415       29.80117        0.47484
C         68.75449       29.45989       -0.47482
O         68.76319       28.07562       -0.83694
O         69.90547       31.18545        0.83694
N         68.08885       27.19518        0.14654
N         70.57982       32.06588       -0.14654
O         68.13631       26.04153       -0.18632
O         67.59281       27.73234        1.11431
O         70.53237       33.21953        0.18631
O         71.07586       31.52871       -1.11430
H         69.79438       29.27561        1.44396
H         70.88638       29.51672        0.02216
H         68.87425       29.98546       -1.44394
H         67.78225       29.74431       -0.02215
