15
ETHYLCYCLOPROPANE.gamout	Energy:    -196.3740197
C          2.05773        0.95758        1.05280
C          0.73189        1.34602        1.72424
C          3.13924        2.01724        1.19932
C          3.99812        2.07506        2.44892
C          4.60695        1.64895        1.12646
H          2.42852        0.00015        1.48398
H          1.88383        0.75823       -0.02940
H         -0.03823        0.55659        1.59797
H          0.32267        2.28352        1.29101
H          0.86786        1.51619        2.81323
H          2.87047        2.99652        0.76115
H          3.84048        1.29862        3.21683
H          4.27262        3.06049        2.85918
H          5.30101        2.34032        0.62137
H          4.86331        0.58376        0.99679
