23
ETHYL_P-AMINOBENZOATE.gamout	Energy:    -554.4058882
O         -2.71112       -0.55357        1.34818
O         -1.74652       -2.23069        2.54327
N          3.37895        0.51238       -0.27806
C         -0.35436       -0.77976        1.21865
C         -0.27074        0.32324        0.33648
C          0.84266       -1.43866        1.58588
C          2.16580        0.09203        0.20833
C          0.96096        0.75339       -0.16074
C          2.07838       -1.01749        1.09590
C         -1.63543       -1.28056        1.77932
C         -3.99512       -0.97924        1.84987
C         -5.05524       -0.05811        1.27035
H         -1.19289        0.84517        0.04178
H          0.77263       -2.29668        2.27229
H          1.00609        1.61518       -0.84704
H          2.99918       -1.54492        1.39515
H         -4.16176       -2.04127        1.56557
H         -3.97916       -0.95022        2.96139
H         -6.05951       -0.35510        1.63584
H         -5.06299       -0.10405        0.16208
H         -4.87539        0.99458        1.57067
H          4.24067        0.04033       -0.01448
H          3.44370        1.30469       -0.91270
