19
ETHYL_ISOPROPYL_KETONE.gamout	Energy:    -310.8581096
C          0.52565       -1.73773        1.19696
C          2.01515       -1.69647        0.83513
C          0.30224       -1.63580        2.72387
C         -0.26309       -0.65790        0.42682
O          0.30514        0.14705       -0.29877
C         -1.78669       -0.64523        0.57884
C         -2.47924        0.42409       -0.26666
H          0.09659       -2.71397        0.86414
H          2.17028       -1.79806       -0.25718
H          2.46566       -0.72814        1.13591
H          2.56507       -2.51215        1.34797
H          0.67141       -0.66305        3.11298
H         -0.76513       -1.73731        3.00542
H          0.86075       -2.43803        3.24922
H         -2.15844       -1.66634        0.32925
H         -2.02902       -0.51918        1.65835
H         -3.57857        0.39245       -0.12572
H         -2.12063        1.43722        0.00445
H         -2.25957        0.28401       -1.34407
