22
ETHYL_VANILLIN.gamout	Energy:    -574.2144490
C          3.84127        3.16519        1.50530
C          3.19655        4.40343        1.58567
C          3.06393        1.99978        1.21296
O          5.17905        3.07949        1.77869
C          1.80051        4.51869        1.38375
C          1.04586        3.36560        1.08215
C          1.14030        5.84129        1.48163
C          1.67521        2.11658        0.99637
O          3.71534        0.80532        1.17159
C          6.05242        2.66502        0.70711
C          7.47340        2.65061        1.24565
O          1.70717        6.89425        1.73608
H          3.78386        5.30447        1.81997
H         -0.04123        3.44951        0.91752
H          0.02159        5.81195        1.29532
H          1.08966        1.20766        0.77301
H          3.06698        0.10159        0.97478
H          5.75702        1.65853        0.33732
H          5.95228        3.38264       -0.14136
H          7.56210        1.93304        2.08657
H          7.76631        3.65433        1.61529
H          8.18279        2.34689        0.44905
