22
ETHYLENE_GLYCOL_DIETHYL_ETHER.gamout	Energy:    -387.1955198
C         70.02970        9.94400       -0.00649
C         68.63893        9.31641       -0.00657
O         68.78912        7.91276       -0.00659
O         69.87952       11.34765       -0.00669
C         67.55519        7.21509       -0.00667
C         71.11347       12.04530       -0.00658
C         67.83003        5.71853       -0.00716
C         70.83865       13.54186       -0.00725
H         70.59658        9.59141        0.89311
H         70.59685        9.59112       -0.90580
H         68.07192        9.66916       -0.90602
H         68.07189        9.66909        0.89289
H         66.94736        7.50223        0.89083
H         66.94711        7.50280       -0.90382
H         71.72112       11.75822        0.89106
H         71.72173       11.75749       -0.90357
H         66.87853        5.14801       -0.00652
H         68.41163        5.42494       -0.90494
H         68.41296        5.42471        0.88969
H         71.79016       14.11238       -0.00643
H         70.25723       13.83540       -0.90516
H         70.25553       13.83575        0.88945
