21
ETHYL_TERT-BUTYL_ETHER.gamout	Energy:    -312.0486174
O          2.16601        0.93321        0.70191
C          0.93979        1.04673       -0.05588
C          3.40017        1.12237        0.02758
C          0.84249       -0.07199       -1.11492
C          0.81749        2.43727       -0.71344
C         -0.15470        0.86353        1.00777
C          4.52370        0.78498        1.00177
H          3.51485        2.17717       -0.32657
H          3.47731        0.47064       -0.87747
H          1.58886        0.05614       -1.92587
H         -0.16028       -0.07473       -1.58984
H          1.00730       -1.06205       -0.64242
H          1.57038        2.58493       -1.51494
H          0.95601        3.23550        0.04483
H         -0.18445        2.56490       -1.17269
H         -0.03501       -0.11827        1.50913
H         -1.16565        0.90946        0.55424
H         -0.07398        1.65378        1.78146
H          4.43613        1.40298        1.91892
H          5.51397        0.97865        0.54077
H          4.47677       -0.28101        1.30455
