10
ETHYLENE_CARBONATE.gamout	Energy:    -342.1535885
O         -0.01334       -1.12382        0.01921
C          0.77848       -0.00572       -0.01170
C         -1.39884       -0.76780        0.04174
C         -1.38831        0.78552        0.04264
O          0.00125        1.12296       -0.00356
O          1.97686       -0.01383       -0.04147
H         -1.86964       -1.19755        0.95033
H         -1.89896       -1.19603       -0.85206
H         -1.83787        1.22016        0.95991
H         -1.89761        1.22191       -0.84170
