18
ETHYL_CARBONATE.gamout	Energy:    -421.9294383
O          5.21374        2.79252        1.02363
C          3.88482        3.01603        1.05380
O          3.17436        1.85596        0.99163
O          3.40705        4.12713        1.12856
C          5.73405        1.44357        0.93544
C          1.73495        2.01630        1.02094
C          7.24994        1.53828        0.92767
C          1.10744        0.63663        0.93906
H          5.36486        0.84988        1.79934
H          5.34451        0.96179        0.01318
H          1.43058        2.66634        0.17291
H          1.45550        2.55032        1.95406
H          7.60770        2.12976        0.06095
H          7.61997        2.02373        1.85315
H          7.69226        0.52334        0.86447
H          0.00203        0.72342        0.96120
H          1.39295        0.11994        0.00021
H          1.41962        0.00189        1.79321
