38
ETHYL_DECANOATE.gamout	Energy:    -621.7305886
C          1.12565       -0.03320       -0.11277
C          0.55276       -1.28483        0.56375
C          2.65266       -0.00592       -0.10399
C         -0.98427       -1.33211        0.58299
O          3.27506        1.07155       -0.67184
O          3.33852       -0.88019        0.38452
C         -1.55949       -2.58529        1.27023
C          2.54679        2.14817       -1.28630
C         -3.09791       -2.64208        1.30508
C          3.56142        3.16211       -1.78794
C         -3.66854       -3.89433        1.99753
C         -5.20557       -3.95443        2.03903
C         -5.76779       -5.20645        2.73310
C         -7.30066       -5.25763        2.76950
H          0.75016        0.88913        0.38760
H          0.76713        0.04878       -1.16477
H          0.95150       -1.33665        1.60018
H          0.96093       -2.18404        0.05331
H         -1.37426       -1.27494       -0.46064
H         -1.37767       -0.42346        1.09675
H         -1.16634       -2.63958        2.31210
H         -1.16878       -3.49530        0.75849
H          1.85411        2.61658       -0.55022
H          1.92730        1.76173       -2.12770
H         -3.49257       -2.58710        0.26338
H         -3.48733       -1.73173        1.81827
H          4.17269        3.55586       -0.95095
H          3.04278        4.01383       -2.27327
H          4.24625        2.70125       -2.52791
H         -3.27180       -3.94812        3.03835
H         -3.28021       -4.80554        1.48539
H         -5.60548       -3.90247        0.99909
H         -5.59668       -3.04519        2.55312
H         -5.36822       -5.25839        3.77198
H         -5.37780       -6.11524        2.21975
H         -7.72404       -4.38549        3.31280
H         -7.66371       -6.17489        3.27609
H         -7.73115       -5.24849        1.74507
