13
ETHYL_VINYL_ETHER.gamout	Energy:    -232.2545209
C          3.78115        1.80515        1.27830
O          3.01080        0.93044        0.44230
C          1.72577        0.66167        0.79077
C          4.37297        1.09311        2.49283
C          1.00928        1.11107        1.84482
H          3.15982        2.67992        1.58022
H          4.59126        2.18251        0.62024
H          1.27896       -0.01980        0.04595
H          4.99597        1.79820        3.08199
H          3.58448        0.69173        3.16048
H          5.01697        0.24743        2.17590
H          1.40997        1.78169        2.61867
H         -0.03856        0.79401        1.94161
