10
ETHYLAMINE.gamout	Energy:    -135.0674259
C          0.01288       -0.56914        0.04919
C         -1.27379        0.25468       -0.01908
N          1.19069        0.29670       -0.08351
H         -0.00459       -1.19238        0.98375
H          0.02844       -1.29515       -0.79492
H         -1.33259        0.97657        0.82524
H         -1.31354        0.83821       -0.96196
H         -2.17326       -0.39287        0.03656
H          1.21907        0.95334        0.71099
H          2.04972       -0.26421        0.00119
