42
ETODOLAC.gamout	Energy:    -940.2304382
O         -2.44860        0.96041       -0.71525
O         -4.60137       -1.49447        0.41958
O         -4.43674        0.32644        1.75099
N          0.68609       -0.89134        0.06901
C         -1.78317       -0.24607       -0.31729
C         -0.31240        0.05564       -0.12082
C          0.23892        1.32807       -0.09194
C         -0.62163        2.54781       -0.26404
C         -2.02419       -1.25906       -1.46440
C         -2.39556       -0.78157        1.03605
C          1.66017        1.16653        0.11498
C         -2.08365        2.15032       -0.00268
C          1.90877       -0.24534        0.21244
C          3.19755       -0.79095        0.41940
C         -1.53601       -0.78585       -2.83602
C          2.74869        2.06259        0.23719
C         -3.89486       -0.56716        1.12733
C          3.43262       -2.28867        0.46398
C          4.24528        0.14029        0.53546
C          4.02949        1.53876        0.44775
C          3.41765       -2.95922       -0.92555
H         -0.32810        3.35845        0.43916
H         -0.51690        2.96896       -1.29042
H         -3.11161       -1.47731       -1.49144
H         -1.53059       -2.21723       -1.18391
H         -2.15925       -1.86069        1.13988
H         -1.94385       -0.24385        1.89027
H         -2.26198        2.01632        1.08969
H         -2.78764        2.92872       -0.35923
H          0.54999       -1.90061        0.06227
H         -2.02422        0.16920       -3.11256
H         -0.43870       -0.61872       -2.84957
H         -1.77516       -1.53640       -3.61719
H          2.59121        3.15043        0.16447
H          4.40758       -2.48578        0.95770
H          2.66587       -2.76917        1.11556
H          5.26811       -0.23665        0.70324
H          4.88921        2.22022        0.54788
H          2.45047       -2.79925       -1.44657
H          3.58479       -4.05406       -0.84756
H          4.21048       -2.53728       -1.57674
H         -5.54415       -1.22757        0.50989
