63
ETORPHINE.gamout	Energy:   -1327.1492543
O         -0.38947       -2.32648        2.17261
O          2.33433       -3.31474        1.25166
O          3.84374       -2.02922       -1.62856
O         -3.05397       -3.61096        2.31218
N          0.15996        2.35799       -0.23420
C          0.09405       -0.22859        1.04638
C          0.58954       -0.06057       -0.42905
C          0.72629       -1.47675        1.72088
C          1.69142       -2.17538        0.69710
C         -0.21150        1.14942       -0.99412
C          2.13349        0.09653       -0.41623
C          2.79722       -1.06104        0.39733
C          0.31301        1.06726        1.86469
C         -1.35129       -0.62981        0.93069
C          0.34562       -1.37221       -1.15407
C         -1.76904        0.87229       -1.02902
C          0.92287       -2.45189       -0.58475
C         -0.26312        2.30273        1.16533
C          4.12811       -1.53032       -0.31073
C         -2.27240       -0.11985        0.01045
C         -1.55126       -1.81463        1.63134
C          4.95384       -2.61051        0.44824
C         -0.19670        3.60843       -0.88058
C         -3.54008       -0.75298       -0.00446
C          5.03323       -0.30375       -0.54902
C         -2.80354       -2.45347        1.62813
C         -3.80572       -1.86655        0.81821
C          1.53942       -4.42454        1.65362
C          5.36325       -2.31237        1.89873
C          6.24400       -3.41582        2.50102
H          1.30950       -1.23179        2.63302
H          0.11655        1.32771       -2.04177
H          2.40626        1.08933       -0.00928
H          2.49485        0.04882       -1.46345
H          3.10557       -0.67566        1.39502
H          1.40242        1.20820        2.03346
H         -0.15921        0.94921        2.86308
H         -0.21855       -1.41598       -2.09973
H         -2.04300        0.47863       -2.03293
H         -2.29639        1.85052       -0.95897
H          0.87391       -3.46858       -1.00711
H         -1.38227        2.31157        1.26974
H          0.09948        3.22296        1.67287
H          5.86711       -2.77405       -0.16704
H          4.38319       -3.55962        0.43330
H         -1.30281        3.80161       -0.94291
H          0.20770        3.63560       -1.91434
H          0.24821        4.45825       -0.32030
H         -4.32493       -0.40320       -0.69527
H          4.55412        0.43553       -1.21837
H          5.97060       -0.63699       -1.03839
H          5.29350        0.20303        0.40175
H          3.26684       -2.80969       -1.51560
H         -4.79129       -2.35721        0.79366
H          2.23130       -5.28622        1.74783
H          0.75147       -4.67730        0.90893
H          1.03945       -4.25403        2.63146
H          4.44980       -2.19886        2.52128
H          5.90617       -1.34208        1.95482
H         -2.23588       -3.85169        2.78951
H          7.18481       -3.54599        1.92404
H          5.71892       -4.39496        2.49771
H          6.52412       -3.19050        3.55133
