53
FENTANYL.gamout	Energy:   -1039.1816830
O         -1.79668        3.22499        0.42829
N          1.68897        0.54784       -0.25426
N         -2.59593        1.10894        0.04364
C         -1.23500        0.53031       -0.13547
C         -0.46872        1.11766       -1.33682
C         -0.36296        0.60150        1.13160
C          0.89867        0.43301       -1.48001
C          0.99608       -0.06471        0.87848
C          3.06301        0.08281       -0.42381
C          4.03161        0.60508        0.66108
C         -3.70669        0.20825       -0.09929
C         -2.75937        2.45926        0.34251
C          5.46764        0.19085        0.40593
C         -4.19461        2.94725        0.58855
C         -3.99043       -0.73025        0.91713
C         -4.49767        0.21798       -1.26823
C         -4.23099        4.37695        1.13155
C          5.90215       -1.12353        0.69187
C          6.39912        1.09336       -0.15232
C         -5.04568       -1.64451        0.76516
C         -5.56258       -0.68835       -1.41068
C         -5.83743       -1.62302       -0.39694
C          7.22300       -1.52326        0.42731
C          7.72299        0.69950       -0.41479
C          8.13914       -0.61202       -0.12732
H         -1.41815       -0.54512       -0.35560
H         -0.33163        2.20531       -1.17842
H         -1.05564        0.97165       -2.26923
H         -0.87118        0.09086        1.97768
H         -0.21340        1.66390        1.40808
H          0.74655       -0.64746       -1.76938
H          1.46837        0.90198       -2.31082
H          1.62740        0.03065        1.78584
H          0.84776       -1.17170        0.71021
H          3.12713       -1.04060       -0.46830
H          3.42078        0.44536       -1.41162
H          3.71783        0.22800        1.65858
H          3.94763        1.71145        0.69616
H         -4.76339        2.88119       -0.36550
H         -4.70779        2.24074        1.27686
H         -3.37616       -0.73188        1.83087
H         -4.26307        0.93833       -2.06743
H         -3.71280        4.44941        2.10923
H         -3.71557        5.07534        0.44326
H         -5.27753        4.71783        1.26668
H          5.19488       -1.84301        1.13803
H          6.08108        2.12469       -0.37940
H         -5.25444       -2.37382        1.56390
H         -6.17600       -0.66939       -2.32553
H         -6.66901       -2.33593       -0.51169
H          7.53996       -2.55223        0.66195
H          8.43405        1.42325       -0.84479
H          9.17666       -0.92140       -0.33088
