5
FLUOROMETHANE.gamout	Energy:    -139.6263376
F         -0.03196        1.62533        0.35272
C          1.13964        1.04602        0.79610
H          0.96327       -0.02018        1.06279
H          1.51602        1.58308        1.69544
H          1.91586        1.09243       -0.00036
