16
FORMANILIDE.gamout	Energy:    -400.6567119
C          6.31274        1.81344       -0.66696
C          6.81294        0.55673       -0.25156
C          4.93140        2.02978       -0.77565
C          4.02269        0.99721       -0.48479
C          4.51672       -0.25051       -0.06610
C          5.89639       -0.47492        0.06323
N          8.20869        0.38487       -0.15566
C          8.93663       -0.78825       -0.10758
O         10.15452       -0.82404       -0.02119
H          7.01957        2.62381       -0.91013
H          4.56378        3.01704       -1.09763
H          2.93869        1.16549       -0.57589
H          3.81767       -1.06507        0.18175
H          6.25318       -1.44827        0.42986
H          8.78907        1.23087       -0.17956
H          8.29263       -1.70758       -0.16739
