5
FORMIC_ACID.gamout	Energy:    -189.6185829
O          1.77008        1.25618        2.69978
C          1.11864        0.63234        1.68483
O          1.67688        0.24126        0.69290
H          1.12071        1.48406        3.39731
H          0.00958        0.52207        1.87145
