30
GENISTEIN.gamout	Energy:    -953.0771761
O          1.21803        1.93583        0.53110
O          2.36581       -2.53679       -0.79596
O         -0.05355       -1.79944       -0.64974
O          5.76362        0.67011        0.30384
O         -6.30320       -0.11012        0.04006
C          1.72390       -0.32345       -0.13238
C         -0.63612        0.43193        0.06617
C          2.15099        0.96276        0.27537
C          0.31201       -0.65049       -0.26924
C         -2.10907        0.24960        0.05523
C          2.72920       -1.31545       -0.40707
C         -0.09654        1.64818        0.41494
C          3.49458        1.30702        0.42431
C          4.08630       -0.98061       -0.25950
C          4.46119        0.31585        0.15274
C         -2.74822       -0.59431       -0.88282
C         -2.92889        0.93366        0.98535
C         -4.14174       -0.72498       -0.90355
C         -4.32128        0.81313        0.96887
C         -4.94334       -0.01864        0.01580
H         -0.70691        2.53737        0.62737
H          3.79090        2.31456        0.73858
H          4.84213       -1.75114       -0.47358
H         -2.14031       -1.16540       -1.59587
H         -2.46294        1.55565        1.76503
H         -4.61480       -1.38690       -1.64764
H         -4.94717        1.34059        1.70252
H          1.33555       -2.50143       -0.82329
H          6.32191       -0.10041        0.08445
H         -6.58504       -0.72809       -0.66139
