14
GLYCEROL.gamout	Energy:    -344.5184252
O          2.08144       -0.60738        0.38543
C          1.31391        0.27913        1.18092
C         -0.05035        0.47565        0.53074
O         -0.84253       -0.68301        0.72769
C         -0.78572        1.69291        1.10518
O         -2.09144        1.67556        0.52602
H          2.88124       -0.83879        0.89077
H          1.13910       -0.11725        2.21211
H          1.80691        1.28188        1.28324
H          0.12845        0.66112       -0.56107
H         -1.75230       -0.38231        0.51502
H         -0.83346        1.59804        2.21782
H         -0.23585        2.63413        0.85890
H         -2.67190        2.24917        1.05710
