50
GLYCERYL_TRIBENZOATE.gamout	Energy:   -1376.9970564
O          0.00624       -0.91653       -0.67712
O          1.88336        1.17524       -0.75722
O         -2.36214        0.69992       -0.93913
O          0.38271       -2.38893       -2.37536
O          2.00367        3.19508        0.27358
O         -4.05058        1.17185       -2.38438
C         -0.10429        0.16844       -1.62460
C          0.48166        1.40371       -0.96084
C         -1.54766        0.36123       -2.07328
C          0.28356       -2.15463       -1.18061
C          0.43533       -3.16927       -0.09734
C          2.54677        2.16548       -0.09500
C         -3.63956        1.07800       -1.23860
C          3.98772        1.83635        0.11351
C         -4.45261        1.34621       -0.01689
C          0.57974       -4.52006       -0.47394
C          0.44390       -2.81564        1.26730
C          4.79166        2.79758        0.75836
C         -5.78022        1.78276       -0.19960
C          4.55259        0.61423       -0.30343
C         -3.94826        1.16006        1.28608
C          0.72554       -5.50892        0.50585
C          0.59841       -3.80862        2.24387
C          0.73679       -5.15458        1.86592
C          6.14905        2.54061        0.98185
C         -6.59427        2.03440        0.91049
C          5.91196        0.36166       -0.07797
C         -4.76712        1.41293        2.39414
C          6.71128        1.32255        0.56340
C         -6.08933        1.84990        2.20888
H          0.48092       -0.10459       -2.52821
H         -0.01451        1.61422        0.00877
H          0.33474        2.29578       -1.60690
H         -1.93108       -0.56547       -2.54725
H         -1.61333        1.16540       -2.83634
H          0.57229       -4.76456       -1.54592
H          0.33185       -1.76011        1.54830
H          4.32269        3.74025        1.07454
H         -6.14678        1.91400       -1.22780
H          3.91735       -0.13150       -0.79984
H         -2.91533        0.81156        1.41846
H          0.83338       -6.56347        0.21163
H          0.61095       -3.53361        3.30918
H          0.85476       -5.93231        2.63587
H          6.77586        3.29265        1.48390
H         -7.63049        2.37563        0.76690
H          6.35248       -0.59224       -0.40368
H         -4.37505        1.26651        3.41148
H          7.77891        1.12010        0.73929
H         -6.73018        2.04638        3.08190
