4
H3O+1.gamout	Energy:     -76.6447187
O         -5.86812        3.77498       -0.21817
H         -5.08163        3.24192        0.07238
H         -5.79993        4.72235        0.07305
H         -6.72252        3.35975        0.07284
