30
HEXAMETHYLBENZENE.gamout	Energy:    -467.7769127
C          2.15462        3.15349        3.53035
C          0.75115        3.54468        3.96747
C          2.33337        2.22912        2.46759
C          3.28496        3.72728        4.16930
C          1.12578        1.54778        1.84334
C          3.63992        1.92540        2.00380
C          3.09517        4.64637        5.36647
C          4.59137        3.42344        3.70534
C          3.82827        1.00599        0.80671
C          4.76963        2.49950        2.64277
C          5.79819        4.10489        4.32989
C          6.17210        2.10815        2.20561
H          0.03524        3.50936        3.12366
H          0.34707        2.87455        4.76149
H          0.71892        4.57530        4.36936
H          1.37830        0.54138        1.45868
H          0.30810        1.41436        2.57745
H          0.70089        2.12336        0.98820
H          2.99873        5.71847        5.07668
H          2.18489        4.38368        5.93796
H          3.94628        4.57815        6.07040
H          3.92335       -0.06623        1.09652
H          2.97705        1.07547        0.10305
H          4.73876        1.26747        0.23508
H          6.22363        3.52913        5.18464
H          6.61562        4.23935        3.59577
H          5.54456        5.11074        4.71492
H          6.57704        2.77772        1.41148
H          6.88740        2.14329        3.04972
H          6.20331        1.07748        1.80420
