10
HEXAFLUOROACETONE.gamout	Energy:    -787.9875139
C          2.60506        0.88858        0.06215
C          1.28167        1.71885       -0.00043
C         -0.05483        0.90969       -0.06231
O          1.29129        2.92383       -0.00054
F          3.64699        1.65991       -0.26520
F          2.78053        0.42496        1.31783
F          2.55185       -0.16263       -0.78244
F         -1.08402        1.69763        0.26574
F         -0.23850        0.44866       -1.31769
F         -0.01714       -0.14183        0.78264
