12
HEXAFLUOROISOPROPANOL.gamout	Energy:    -789.2095566
F         -1.64372       -1.29157       -0.94565
C         -1.53101       -0.40814        0.06031
C         -0.22968        0.42626       -0.00045
C          1.05327       -0.42256       -0.10360
F          1.12842       -1.09172       -1.26677
F          2.13471        0.37825       -0.00508
F          1.10469       -1.32129        0.90827
O         -0.24110        1.28799       -1.10551
H         -0.16566        0.95667        0.98226
F         -2.58074        0.46257       -0.03677
F         -1.65165       -1.06592        1.22906
H         -1.06052        1.81723       -1.05483
