10
HEXACHLORO-1,3-BUTADIENE.gamout	Energy:   -2912.8456621
C          1.08441        0.91184        0.34147
C          1.93766        1.58116       -0.48532
Cl         0.89380       -0.80491        0.31232
Cl         0.11468        1.75401        1.50818
C          2.08854        3.04794       -0.48532
Cl         2.87872        0.71631       -1.68083
C          2.94179        3.71726        0.34147
Cl         1.14748        3.91279       -1.68082
Cl         3.13240        5.43401        0.31232
Cl         3.91153        2.87509        1.50818
