20
HEXAMETHYLENEIMINE.gamout	Energy:    -290.9837360
C         -5.99397        0.84088        0.44947
C         -6.28448       -0.28618       -0.58855
C         -4.63927        0.72186        1.17212
C         -5.04572       -1.04903       -1.09157
C         -3.41444        1.08454        0.25660
C         -3.98498       -0.18167       -1.81091
N         -3.63420        1.09395       -1.18621
H         -6.04891        1.83695       -0.04439
H         -6.80663        0.85709        1.20741
H         -6.84243        0.13841       -1.45279
H         -6.97366       -1.02920       -0.13109
H         -4.52827       -0.30510        1.58374
H         -4.63890        1.39654        2.05541
H         -5.36210       -1.86475       -1.77960
H         -4.56768       -1.56756       -0.23153
H         -2.56808        0.39505        0.47428
H         -3.04781        2.09759        0.53216
H         -4.32416        0.04651       -2.84551
H         -3.05788       -0.79130       -1.92887
H         -4.32537        1.81161       -1.43202
