16
HEXENE-5-NITRILES.gamout	Energy:    -288.5494377
C         53.93361        8.97479       -0.00664
C         52.56924        8.33146       -0.33080
C         53.86864       10.51919       -0.02954
C         55.15143       11.16340        0.27001
N         56.18465       11.66161        0.51129
C         52.62799        6.82607       -0.36934
C         51.93606        5.99468        0.43085
H         54.28141        8.63250        0.99090
H         54.69713        8.63219       -0.73825
H         52.22759        8.71255       -1.32196
H         51.80995        8.66231        0.41195
H         53.52792       10.87613       -1.02701
H         53.11664       10.88714        0.70361
H         53.31497        6.39203       -1.12184
H         52.03490        4.90050        0.34736
H         51.23860        6.37717        1.19651
