31
HMIM+1.gamout	Energy:    -501.4269863
C          2.14678        0.57070        1.39172
C          3.61692        0.24663        1.08540
N          3.98287       -1.15138        1.42036
H          4.30522        0.89909        1.65862
H          3.84376        0.38638        0.00924
C          4.01384       -2.18470        0.55508
C          4.46989       -2.98974        2.57399
C          4.25983       -1.63282        2.69080
C          4.48347       -4.64837        0.64041
H          4.28777       -0.98061        3.57022
N          4.31004       -3.31413        1.23480
H          3.83128       -2.11803       -0.52381
H          4.72192       -3.74137        3.33012
H          3.67720       -4.83965       -0.09288
H          4.42333       -5.40411        1.44432
H          5.47096       -4.72002        0.14201
C          1.12688       -0.21585        0.55563
H          2.02403        1.66190        1.21535
H          1.95516        0.42148        2.47810
C         -0.33470        0.13446        0.87757
H          1.27481       -1.31039        0.71391
H          1.31988       -0.03347       -0.52729
C         -1.35367       -0.66867        0.05247
C         -2.81141       -0.32775        0.38110
H         -3.03127        0.74299        0.18748
H         -3.04529       -0.52755        1.44786
H         -3.51446       -0.92695       -0.23218
H         -1.16349       -0.49412       -1.03096
H         -1.17795       -1.75663        0.21705
H         -0.49726        1.22361        0.71043
H         -0.52145       -0.03420        1.96319
