36
HMPYR+1.gamout	Energy:    -487.7722049
N          0.30523       -0.15387       -0.33653
C         -0.48667        1.15131       -0.30921
C          1.35086        0.09443        0.75515
C          1.74448        1.57652        0.62080
H          2.17799       -0.63017        0.62986
H          0.84669       -0.11505        1.71859
C          0.56661        2.25242       -0.14495
H         -1.15158        1.08000        0.57428
H         -1.11515        1.21955       -1.21573
H          0.13737        3.11389        0.40188
H          0.89652        2.63536       -1.13093
H          2.70066        1.69660        0.07471
H          1.90133        2.01575        1.62454
C         -0.56013       -1.33572       -0.00527
H         -1.06565       -1.15280        0.96067
H          0.07458       -2.23832        0.06752
H         -1.31495       -1.47448       -0.79966
C          1.03395       -0.39495       -1.67329
C          0.18093       -0.37549       -2.95012
H          1.51853       -1.38077       -1.53447
H          1.84275        0.35966       -1.72889
C          0.08882        0.96708       -3.70021
H         -0.83587       -0.78515       -2.75794
H          0.64430       -1.12001       -3.63269
C         -0.69726        0.85393       -5.01782
H          1.12084        1.32754       -3.91592
H         -0.37512        1.74803       -3.05859
C         -0.77155        2.15615       -5.83557
H         -1.73107        0.49845       -4.79789
H         -0.23168        0.05831       -5.64210
C         -1.55946        3.29429       -5.17265
H         -1.23379        1.91930       -6.81777
H          0.26144        2.49929       -6.06942
H         -2.59441        2.97714       -4.91896
H         -1.64076        4.16800       -5.85113
H         -1.07919        3.66097       -4.24011
