36
HQUIN+1.gamout	Energy:    -637.7025635
C         -1.58697       -1.23794        0.20296
C         -2.29290       -2.50807        0.26366
C         -1.54978       -3.72800        0.30641
C         -0.16559       -1.26266        0.18743
C          0.51739       -2.47503        0.22565
H          0.41322       -0.34000        0.13617
C         -0.16498       -3.71786        0.28554
H         -2.10851       -4.67545        0.35374
C         -3.71050       -2.53022        0.27321
H          1.61823       -2.46062        0.20507
H          0.40205       -4.66042        0.30821
C         -4.42102       -1.33623        0.22792
H         -4.23393       -3.49847        0.31434
N         -2.35275       -0.06485        0.15577
C         -3.70657       -0.13493        0.16859
H         -5.51972       -1.30617        0.23599
H         -4.23285        0.83053        0.13285
C         -1.86353        1.38489        0.09376
C         -0.38749        1.77483        0.06370
H         -2.33858        1.86860        0.97156
H         -2.35518        1.79884       -0.81126
C         -0.25879        3.31205        0.00014
H          0.12069        1.34407       -0.82396
H          0.13802        1.41675        0.97376
C          1.20796        3.77177       -0.03223
H         -0.77222        3.76795        0.87744
H         -0.78998        3.69572       -0.90067
C          1.37982        5.29727       -0.10568
H          1.71740        3.30143       -0.90474
H          1.73378        3.38555        0.87139
C          2.84867        5.73650       -0.13618
H          0.86637        5.76674        0.76410
H          0.85531        5.68296       -1.00950
H          3.39125        5.40695        0.77557
H          2.93935        6.83961       -0.19535
H          3.38142        5.31102       -1.01317
