3
HYDROGEN_SELENIDE.gamout	Energy:   -2402.7295966
Se        -4.07979        0.00327        2.88955
H         -2.64329       -0.37325        2.88689
H         -3.83254        1.01362        1.82966
