17
ISO-AMYL_BROMIDE.gamout	Energy:   -2771.1291273
Br        60.10810        0.02480       -0.16663
C         58.13200        0.00462       -0.05521
C         57.54776        1.40910        0.04316
C         55.99808        1.43505        0.06014
C         55.40599        0.73443        1.29617
C         55.49123        2.88482       -0.03798
H         57.79644       -0.52578       -0.96797
H         57.90635       -0.62222        0.82754
H         57.93385        1.90983        0.95978
H         57.91112        2.00892       -0.81931
H         55.64321        0.89007       -0.84733
H         54.29691        0.78473        1.28982
H         55.68221       -0.33895        1.35318
H         55.75508        1.22121        2.23346
H         54.38203        2.92140       -0.06722
H         55.86858        3.39431       -0.94967
H         55.82197        3.48284        0.83929
