12
ISOBUTENE.gamout	Energy:    -157.1019104
C          0.95713        0.98406        1.38345
C          2.10032        1.88561        0.97676
C          3.47994        1.42477        1.38775
C          1.90122        3.03145        0.28977
H          1.06937       -0.03005        0.93891
H          0.93513        0.83898        2.48677
H         -0.02531        1.39038        1.07041
H          3.55221        1.32095        2.49359
H          3.71013        0.42023        0.96707
H          4.27041        2.12664        1.05529
H          2.74385        3.68037       -0.00100
H          0.88964        3.35786       -0.00318
