14
ISOBUTANE.gamout	Energy:    -158.3293408
C          2.68648        1.23759        0.70470
C          1.99424        0.97332        2.05338
C          2.32281        2.07498        3.07614
C          0.47468        0.80697        1.88040
H          2.48526        0.42452       -0.02470
H          3.78768        1.32054        0.82208
H          2.32804        2.18804        0.25073
H          2.39686        0.01249        2.45256
H          1.85770        1.86571        4.06286
H          1.94404        3.06277        2.73238
H          3.41773        2.17383        3.23279
H          0.01670        1.73777        1.47892
H         -0.02338        0.58145        2.84724
H          0.23112       -0.01522        1.17473
