23
ISOBUTYL_PROPIONATE.gamout	Energy:    -425.3281677
O          2.81706        1.62333       -0.02658
C          1.55262        1.48802        0.45992
C          0.64029        2.57337       -0.09461
O          1.22207        0.61080        1.23744
C          3.78541        0.65317        0.43241
C         -0.80689        2.43931        0.37704
C          5.13804        0.96670       -0.21226
C          5.65062        2.36041        0.18673
C          6.14885       -0.13700        0.14216
H          1.07936        3.55328        0.19745
H          0.72137        2.54472       -1.20340
H          3.84520        0.69544        1.54362
H          3.43002       -0.36614        0.16643
H         -1.43600        3.25021       -0.04219
H         -1.24187        1.46803        0.06664
H         -0.87208        2.48532        1.48254
H          4.98060        0.95495       -1.31558
H          6.60443        2.59850       -0.32832
H          4.91476        3.14739       -0.07275
H          5.83726        2.41579        1.28166
H          7.12821        0.05049       -0.34445
H          5.79918       -1.13945       -0.18318
H          6.32657       -0.18271        1.23872
