17
ISOPENTANE.gamout	Energy:    -197.6108266
C          3.33980        1.93455        2.59592
C          2.15434        1.06685        2.11161
C          2.37499        0.60071        0.66193
C          0.80201        1.78901        2.25388
C          3.35879        2.23603        4.09996
H          4.28753        1.42020        2.31881
H          3.33835        2.88948        2.01923
H          2.12286        0.15876        2.76050
H          3.31078        0.01128        0.56136
H          2.45198        1.47018       -0.02764
H          1.53650       -0.03353        0.30454
H          0.77139        2.70002        1.61634
H         -0.03850        1.13427        1.94092
H          0.60264        2.10431        3.29884
H          2.46255        2.80443        4.42538
H          3.39317        1.29976        4.69822
H          4.24755        2.83955        4.37901
