24
ISOPROPYL-TERT-BUTYL_ETHER.gamout	Energy:    -351.3338269
O          2.92063        2.47108        1.29790
C          1.80569        3.15425        1.91333
C          3.99036        1.98417        2.12404
C          2.26603        4.44682        2.62116
C          1.05779        2.22796        2.89564
C          0.89675        3.50197        0.72339
C          4.06355        0.45790        1.98379
C          5.29283        2.66790        1.68899
H          3.79623        2.23530        3.19372
H          2.80629        5.10389        1.90940
H          1.39535        5.00860        3.01913
H          2.93917        4.23149        3.47691
H          0.15323        2.72841        3.29980
H          0.73889        1.29939        2.37963
H          1.69375        1.94688        3.76042
H          0.59005        2.57746        0.19338
H          1.43899        4.14645        0.00206
H         -0.01521        4.03703        1.05921
H          4.90556        0.03732        2.57328
H          4.21338        0.18317        0.91868
H          3.12558       -0.02054        2.33073
H          6.16045        2.29736        2.27477
H          5.48572        2.46450        0.61476
H          5.22837        3.76672        1.82163
