15
ISOPROPYL_METHYL_SULFIDE.gamout	Energy:    -556.4317559
S          2.18142        2.61022        0.03030
C          0.97742        2.60618        1.40404
C          3.76880        2.14417        0.87449
C          3.73773        0.72228        1.45031
C          4.22497        3.19366        1.89646
H          1.22181        3.35579        2.18439
H          0.00575        2.88460        0.94967
H          0.86635        1.60528        1.86975
H          4.47184        2.16183        0.01173
H          3.44019       -0.01730        0.68038
H          4.73894        0.43605        1.84051
H          3.02351        0.64374        2.29729
H          5.23384        2.94225        2.29072
H          4.27016        4.20401        1.44302
H          3.53799        3.23695        2.76814
