24
ISOPROPYLCYCLOPENTANE.gamout	Energy:    -314.2522134
C         -1.03161        0.86906        0.01205
C         -1.16268       -0.68581       -0.04851
C          0.27761       -1.22041       -0.24491
C          1.19903       -0.11382        0.32085
C          0.47800        1.16978       -0.15461
H         -1.64055        1.37584       -0.76499
H         -1.39477        1.25164        0.98909
H         -1.59412       -1.07737        0.89680
H         -1.83998       -1.02248       -0.86056
H          0.43115       -2.21046        0.23100
H          0.49984       -1.34348       -1.32982
H          1.13802       -0.14908        1.43735
C          2.69035       -0.22663       -0.07152
H          0.72471        1.33937       -1.22793
H          0.79268        2.08036        0.39536
H          2.73283       -0.20469       -1.18800
C          3.30914       -1.55601        0.39773
C          3.51746        0.96196        0.45209
H          3.49106        1.00518        1.56340
H          3.14406        1.93347        0.06948
H          4.58226        0.87056        0.15023
H          2.78574       -2.43573       -0.02892
H          3.26561       -1.64227        1.50583
H          4.37717       -1.62582        0.10177
