16
ISOPROPYL_METHYL_KETONE.gamout	Energy:    -271.5740460
C          0.99476       -0.06338        0.02445
C          0.23033       -0.44424        1.30298
C         -0.63431       -1.70198        1.04524
C          1.17704       -0.63099        2.49242
C          0.17349        0.42261       -1.17106
O          2.21218       -0.14518       -0.05105
H         -0.46885        0.40246        1.50688
H          0.00920       -2.57892        0.82047
H         -1.33718       -1.56782        0.19768
H         -1.23639       -1.94669        1.94461
H          1.87771       -1.47102        2.30877
H          0.60675       -0.84757        3.41923
H          1.79399        0.27375        2.66337
H         -0.90997        0.52469       -0.96549
H          0.31608       -0.27781       -2.02049
H          0.57647        1.40283       -1.49939
