21
ISOPROPYL_PROPYL_ETHER.gamout	Energy:    -312.0485860
C         -0.86467       -0.16678       -0.33813
C         -2.09051        0.35254        0.41207
C         -3.41124       -0.18183       -0.15041
O          0.29714        0.40818        0.23335
C          1.53935       -0.01831       -0.33795
C          2.57148        1.05125        0.02104
C          1.94621       -1.41127        0.16309
H         -0.83957       -1.28527       -0.28401
H         -0.93666        0.09487       -1.42694
H         -1.98311        0.07575        1.48371
H         -2.07182        1.46399        0.38121
H         -3.55345        0.10906       -1.21351
H         -3.45860       -1.29116       -0.10339
H         -4.27970        0.21013        0.41744
H          1.43070       -0.05494       -1.45308
H          2.66285        1.13794        1.12404
H          3.56916        0.79709       -0.39185
H          2.26490        2.03902       -0.37736
H          2.07341       -1.40109        1.26605
H          1.18578       -2.17939       -0.08748
H          2.90465       -1.73401       -0.29475
