8
ISOXAZOLE.gamout	Energy:    -245.8616963
C          2.76711        0.93231        0.02381
C          1.33913        0.86616        0.06601
C          0.97310        2.19108        0.06479
N          3.21474        2.17779       -0.00053
O          2.06923        2.97886        0.02554
H          3.49378        0.10787        0.01018
H          0.69467       -0.01853        0.09285
H          0.00904        2.71387        0.08817
