20
L-ASCORBIC_ACID.gamout	Energy:    -684.2905470
C          6.00232        5.30074        4.52557
C          7.11568        4.41247        4.17491
O          4.86697        4.91681        3.81853
O          6.02003        6.22829        5.31304
C          6.66034        3.47704        3.29296
O          8.32500        4.57568        4.75829
C          5.21117        3.80687        2.98290
O          7.29150        2.43048        2.73820
C          4.27986        2.61814        3.24126
O          2.17816        1.60260        3.02306
C          2.80917        2.87964        2.92191
O          4.76069        1.57110        2.38909
H          8.21627        5.35998        5.34318
H          5.09643        4.11273        1.91493
H          6.57586        1.83304        2.39587
H          4.36880        2.32465        4.31601
H          1.27530        1.67170        2.66483
H          2.72514        3.29938        1.89012
H          2.39506        3.62389        3.63973
H          4.03967        0.90312        2.37170
