16
M-HIDROXYBENZOIC_ACID.gamout	Energy:    -495.6940697
C          6.49203        1.87450       -0.51796
C          6.98850        0.58070       -0.24191
C          5.10272        2.07530       -0.62832
O          7.30494        2.95634       -0.68565
C          4.22047        0.99116       -0.46378
C          4.71531       -0.30415       -0.18802
C          2.75596        1.27426       -0.59322
C          6.10064       -0.49628       -0.07934
O          2.27232        2.36981       -0.82955
O          1.98579        0.16322       -0.41735
H          8.07700        0.41986       -0.15461
H          4.70246        3.07695       -0.84268
H          8.23266        2.67030       -0.58251
H          4.01645       -1.14227       -0.06195
H          6.50208       -1.49927        0.13524
H          1.06026        0.47475       -0.52452
