17
M-TOLUIDINE.gamout	Energy:    -326.6837474
C          6.32654        1.88932       -0.66132
C          6.84940        0.61701       -0.36024
C          4.92464        2.06496       -0.67484
C          7.25586        3.03606       -0.99781
C          6.00839       -0.48826       -0.07700
C          4.60478       -0.28885       -0.09987
N          6.54989       -1.72248        0.27757
C          4.08009        0.97697       -0.39543
H          7.94385        0.47394       -0.33843
H          4.49743        3.05436       -0.90393
H          8.22842        2.94572       -0.47214
H          7.47716        3.06644       -2.08806
H          6.80912        4.01554       -0.73140
H          3.93030       -1.13196        0.12367
H          5.94104       -2.53381        0.15506
H          7.50797       -1.89935       -0.03045
H          2.98667        1.11590       -0.40645
