45
MALTOSE.gamout	Energy:   -1296.9659260
O         -0.92542       -1.64343       -0.48532
O          0.08372       -0.20875       -2.70238
O          1.88791       -1.78082       -4.19303
O          2.52354       -4.30512       -3.17735
O          1.23322       -2.64794       -0.15383
O          1.89694       -5.18238        0.92591
C          0.47602       -1.54841       -0.63124
C          0.97854       -1.08861       -2.03707
C          1.27278       -2.23493       -2.99583
C          2.23877       -3.20941       -2.32896
C          1.58896       -3.73513       -1.04564
C          2.49254       -4.68147       -0.25503
O         -4.77233       -3.14021        0.80563
O         -3.24459       -5.39004        1.51090
O         -0.76725       -4.32579        0.93115
O         -4.02697       -3.36707       -1.41749
O         -4.21495       -0.92666       -2.90092
C         -4.30121       -4.01786       -0.18543
C         -3.01552       -4.68854        0.30956
C         -1.92553       -3.62795        0.48118
C         -1.71249       -2.80736       -0.80690
C         -3.07903       -2.29733       -1.32171
C         -3.01635       -1.66122       -2.69700
H         -0.16029        0.51045       -2.08917
H          1.30094       -1.09429       -4.56697
H          2.70793       -3.91472       -4.05628
H          0.99285       -5.49132        0.70668
H          0.72002       -0.73174        0.08277
H          1.95828       -0.58182       -1.84664
H          0.32748       -2.78865       -3.22397
H          3.16882       -2.64393       -2.06131
H          0.66992       -4.29204       -1.34382
H          2.81007       -5.48747       -0.95987
H          3.40610       -4.12930        0.05631
H         -5.62371       -2.78347        0.48719
H         -2.35463       -5.54380        1.88969
H         -0.02636       -3.68626        1.05092
H         -4.17819       -0.55662       -3.80053
H         -5.05893       -4.79164       -0.44246
H         -2.69797       -5.38002       -0.51332
H         -2.27874       -2.91064        1.25980
H         -1.22824       -3.43243       -1.59185
H         -3.43652       -1.53305       -0.59449
H         -2.10638       -1.01942       -2.74701
H         -2.89599       -2.48865       -3.44151
