18
METHYL_SEC-BUTYL_ETHER.gamout	Energy:    -272.7613505
C         -0.03494       -0.43120        0.28513
C         -0.67459       -1.80983        0.06750
C          1.42690       -0.38878       -0.18389
C          2.13225        0.93958        0.10895
O         -0.72716        0.59861       -0.42942
C         -1.95370        0.99971        0.13891
H         -0.06319       -0.18724        1.38079
H         -0.63530       -2.08927       -1.00622
H         -0.13909       -2.58745        0.65090
H         -1.73604       -1.83001        0.38971
H          1.96860       -1.23294        0.29671
H          1.43378       -0.59283       -1.27829
H          1.58903        1.77924       -0.36875
H          2.17488        1.14255        1.20085
H          3.17442        0.94002       -0.27203
H         -2.70903        0.17767        0.18223
H         -1.82630        1.39948        1.17646
H         -2.36484        1.80751       -0.49963
