55
METHYL_LINOLEATE.gamout	Energy:    -894.2366618
C         -3.58377       -1.15671        0.02003
O         -2.15845       -1.19550       -0.01758
H         -2.81508      -11.40086       -0.81988
H         -3.86372       -0.08596        0.01593
H         -4.04293       -1.64433       -0.86767
H         -3.99569       -1.62502        0.94073
C         -1.46845       -2.38014       -0.02479
O         -0.25681       -2.34136       -0.05988
C         -2.28044       -3.67201        0.01154
C         -1.74143      -13.92519        0.02401
H         -0.16481      -12.51479       -0.02515
C         -1.40169       -4.92887       -0.00349
H         -2.93422       -3.65842        0.91401
H         -2.98558       -3.67662       -0.85162
C         -2.20715       -6.23829        0.03084
H         -0.75461       -4.89802       -0.90685
H         -0.70064       -4.88325        0.85797
C         -1.33812       -7.50964        0.01104
H         -2.85476       -6.25233        0.93893
H         -2.90820       -6.26552       -0.83645
C         -2.14458       -8.82136        0.04098
H         -0.69261       -7.49593       -0.89757
H         -0.63648       -7.48834        0.87695
C         -1.28678      -10.09789        0.01574
H         -2.79145       -8.83419        0.94929
H         -2.84650       -8.83953       -0.82558
C         -2.10782      -11.40007        0.04267
H         -0.64229      -10.09255       -0.89362
H         -0.58419      -10.09140        0.88110
C         -1.26284      -12.66372        0.01176
H         -2.75715      -11.40259        0.94952
C         -0.90875      -15.19703       -0.01043
H         -2.84016      -14.06743        0.06125
C         -1.72494      -16.47985        0.01323
H         -0.49212      -22.87949        0.83040
C         -1.22918      -17.73466       -0.01007
H         -1.38534      -25.07321       -0.03170
H         -2.65387      -24.23425        0.91307
H         -2.71960      -24.22881       -0.87556
H         -0.55693      -22.87374       -0.94266
C         -2.05525      -19.01090        0.01426
H         -0.19334      -15.19622        0.84584
H         -2.82533      -16.35239        0.05292
C         -1.21375      -20.30065       -0.02135
H         -2.70177      -19.02277        0.92303
H         -2.76489      -19.01600       -0.84626
C         -2.04137      -21.59663        0.00348
H         -0.57168      -20.28990       -0.93254
H         -0.50817      -20.29771        0.84182
C         -1.19822      -22.88257       -0.03157
H         -2.68353      -21.60401        0.91532
H         -2.74758      -21.59796       -0.85984
C         -2.03101      -24.17117       -0.00508
H         -0.25742      -15.18840       -0.91634
H         -0.12910      -17.86683       -0.05017
