53
METHYLPALMITATE.gamout	Energy:    -818.1488221
C         -0.26030        0.06359       -0.16735
O         -0.33707        1.04743       -0.87983
O         -1.35428       -0.56479        0.35024
C          1.02836       -0.60911        0.27839
C         -2.61907        0.01297       -0.00465
H         -3.39053       -0.63565        0.44970
H         -2.74523        0.04923       -1.10608
H         -2.70737        1.04670        0.38875
H          1.24012       -0.24959        1.31221
H          1.83196       -0.19810       -0.36609
C          1.01585       -2.14933        0.26384
H          0.72522       -2.50479       -0.75026
H          0.21866       -2.50778        0.94997
C          2.36743       -2.77088        0.65999
H          2.66534       -2.38816        1.66379
H          3.15681       -2.41370       -0.04154
C          2.36215       -4.31169        0.68459
H          2.05597       -4.69324       -0.31702
H          1.57101       -4.65918        1.38922
C          3.70744       -4.95215        1.08056
H          4.02571       -4.55341        2.07180
H          4.49510       -4.62718        0.36153
C          3.67170       -6.49163        1.14125
H          3.36412       -6.89085        0.14680
H          2.86795       -6.80587        1.84768
C          4.99882       -7.15328        1.56303
H          5.31994       -6.73773        2.54645
H          5.79998       -6.86659        0.84246
C          4.92650       -8.68952        1.66261
H          4.61776       -9.10762        0.67621
H          4.10949       -8.96596        2.36971
C          6.23486       -9.36869        2.11353
H          6.55539       -8.93347        3.08879
H          7.04892       -9.11810        1.39388
C          6.13195      -10.90008        2.25507
H          5.79757      -11.33789        1.28577
H          5.32331      -11.14103        2.98433
C          7.43531      -11.59100        2.70346
H          7.77501      -11.13753        3.66383
H          8.24331      -11.36929        1.96762
C          7.31458      -13.11729        2.88410
H          6.94999      -13.57324        1.93430
H          6.52239      -13.33034        3.63967
C          8.61900      -13.81410        3.31611
H          8.98287      -13.35154        4.26325
H          9.41470      -13.61264        2.56108
C          8.48719      -15.33388        3.51770
H          8.11016      -15.79728        2.57745
H          7.70227      -15.53214        4.28336
C          9.79526      -16.01623        3.94077
H         10.17280      -15.60389        4.90105
H         10.59474      -15.87069        3.18269
H          9.65898      -17.10852        4.07680
