35
METHYL_DECANOATE.gamout	Energy:    -582.4516625
O         -4.34191        0.53108        0.65031
O         -4.98572       -1.43291       -0.32005
C          2.31279       -0.45403        0.36758
C          0.91664       -0.05623       -0.13477
C          3.45568        0.36136       -0.25625
C         -0.22719       -0.86660        0.49426
C          4.84965       -0.01518        0.26801
C         -1.62174       -0.42248        0.02982
C          5.99410        0.80211       -0.35184
C         -2.76404       -1.23754        0.66850
C          7.38029        0.42452        0.18523
C         -4.15159       -0.76625        0.26377
C         -5.60792        1.13779        0.34479
H          2.34758       -0.34526        1.47658
H          2.48228       -1.53793        0.16926
H          0.74833        1.02743        0.06557
H          0.87898       -0.16334       -1.24363
H          3.27422        1.44621       -0.07354
H          3.43430        0.23816       -1.36404
H         -0.08296       -1.94863        0.26945
H         -0.16958       -0.78151        1.60440
H          5.03164       -1.09979        0.08349
H          4.87086        0.10549        1.37635
H         -1.69076       -0.50131       -1.07863
H         -1.77397        0.65118        0.27378
H          5.97534        0.67386       -1.45836
H          5.80604        1.88574       -0.17367
H         -2.69320       -1.16011        1.77660
H         -2.69563       -2.31051        0.40049
H          7.44369        0.57560        1.28429
H          8.18227        1.03337       -0.28171
H          7.61370       -0.64352       -0.01396
H         -5.42711        2.02578       -0.29442
H         -6.07775        1.46429        1.29460
H         -6.26162        0.41321       -0.17924
