19
METHYL-ISO-BUTYL_KETONE.gamout	Energy:    -310.8589883
C          2.44248        2.92037        2.38557
C          2.07879        1.46484        2.04433
C          3.91917        3.28387        2.19805
C          2.16915        1.20110        0.53171
C          0.68839        1.10059        2.59197
C          4.25769        4.76875        2.25420
O          4.78256        2.43396        2.02851
H          1.81186        3.63997        1.81249
H          2.21316        3.13887        3.45631
H          2.83850        0.82358        2.54459
H          1.93981        0.14091        0.29540
H          1.44183        1.83005       -0.02827
H          3.18515        1.41582        0.14382
H         -0.10435        1.73229        2.13398
H          0.43695        0.04228        2.37085
H          0.62870        1.23678        3.69281
H          5.35442        4.90668        2.29406
H          3.77654        5.26113        3.12533
H          3.86175        5.27388        1.34626
