18
METHYL_TERT-BUTYL_ETHER.gamout	Energy:    -272.7608735
O          1.86154        0.52152        1.00768
C          2.76103        1.41818        1.70013
C          2.76981        1.14582        3.21813
C          4.13298        1.08296        1.09452
C          2.39519        2.88787        1.40783
C          0.51187        0.48932        1.41786
H          1.81044        1.42593        3.70076
H          2.95675        0.07008        3.41764
H          3.57078        1.73164        3.71427
H          4.40162        0.02988        1.31511
H          4.09914        1.20132       -0.00757
H          4.92375        1.74601        1.50033
H          1.39746        3.15758        1.81303
H          2.38838        3.07461        0.31437
H          3.13074        3.57602        1.87363
H          0.01094        1.48697        1.37628
H         -0.01716       -0.18556        0.71459
H          0.37217        0.08170        2.44838
