16
METHOXYETHYLSULFATE-1.gamout	Energy:    -892.3794585
C         -1.94502       -4.17648       -0.37601
O         -0.82333       -3.42580       -0.01324
H         -1.73067       -5.24532       -0.16564
H         -2.20047       -4.07940       -1.46636
H         -2.86445       -3.88625        0.19711
C         -0.99599       -2.03280       -0.25319
C          0.18854       -1.23026        0.26381
H         -1.11695       -1.85380       -1.35689
H         -1.92534       -1.66371        0.25002
O          0.16962       -1.17276        1.66832
H          0.10573       -0.20114       -0.16650
H          1.13544       -1.68317       -0.12932
S          0.96683        0.27966        2.29763
O          2.38795        0.11285        1.86311
O          0.69563        0.11577        3.74952
O          0.23307        1.39680        1.61664
