59
METHYL_STEARATE.gamout	Energy:    -896.7159892
C         20.62957        6.97442        0.26604
O         19.35045        7.27900        0.84163
O         18.37266        6.13409       -0.85728
H         20.78577        5.87773        0.20288
H         20.71507        7.39392       -0.75766
H         21.38313        7.43187        0.93301
C         18.27551        6.78937        0.16436
C         16.98088        7.18065        0.85685
H          9.26260        8.10579        0.88982
H         -3.79393        7.27425        0.97792
H         -4.50697        7.71567       -0.60419
C         15.72533        6.65926        0.15057
H         17.04126        6.82110        1.90874
H         16.97191        8.29124        0.93773
C         14.41739        7.08216        0.83895
H         15.78093        5.55048        0.08454
H         15.73457        7.01370       -0.90367
C         13.14488        6.58431        0.12930
H         14.41757        6.71662        1.89275
H         14.38255        8.19463        0.91087
C         11.83335        7.01612        0.80997
H         13.17483        5.47221        0.05658
H         13.14824        6.95096       -0.92377
C         10.55862        6.56092        0.07575
H         11.81522        6.63016        1.85611
H         11.82109        8.12749        0.90325
C          9.24763        6.99877        0.75446
H         10.56841        5.45079       -0.02922
H         10.57893        6.95781       -0.96631
C          7.97320        6.60848       -0.01725
H          9.20413        6.57441        1.78472
C          6.66246        7.04909        0.66094
H         -3.59021        8.93238        0.33664
H          8.02106        7.05315       -1.03887
H          7.95639        5.50456       -0.17403
C          5.39122        6.73459       -0.15053
H          6.70490        8.14703        0.85187
H          6.58822        6.57527        1.66754
C          4.08198        7.17650        0.53025
H          5.34627        5.64132       -0.36493
H          5.46968        7.23055       -1.14624
C          2.81356        6.93034       -0.30900
H          3.98185        6.65680        1.51161
H          4.14965        8.26238        0.77493
C          1.50705        7.37159        0.37762
H          2.91452        7.46593       -1.28184
H          2.74561        5.84845       -0.57020
C          0.23991        7.17146       -0.47601
H          1.59080        8.44700        0.66079
H          1.39225        6.81965        1.33967
C         -1.06601        7.60810        0.21245
H          0.35310        7.73228       -1.43318
H          0.15853        6.09826       -0.76804
C         -2.32624        7.42769       -0.65123
H         -1.19077        7.03848        1.16311
H         -0.98120        8.67791        0.51644
C         -3.62159        7.85933        0.04893
H         -2.20532        8.00167       -1.59854
H         -2.40916        6.35981       -0.95879
