16
METHYL_ISOPROPYL_KETONE.gamout	Energy:    -271.5745392
C          1.97425        2.19639        2.55288
C          3.24584        2.10284        1.68360
C          4.48906        1.87325        2.55555
C          3.04949        0.95990        0.66052
C          0.89571        3.16515        2.08916
O          1.83791        1.50533        3.55191
H          3.35075        3.05662        1.11815
H          4.34252        0.98038        3.19644
H          4.67900        2.73616        3.22688
H          5.39189        1.72037        1.92914
H          2.16636        1.12312        0.00748
H          2.90958       -0.00782        1.18622
H          3.93920        0.86795        0.00325
H          0.68414        3.04454        1.00563
H          1.25793        4.20801        2.22438
H         -0.02914        3.02145        2.67874
