12
METHACRYLIC_ACID.gamout	Energy:    -306.2609992
C          1.99019        1.76618       -0.05038
C          1.23330        0.46414       -0.00253
C         -0.11359        0.36687        0.08030
C          2.09129       -0.76563       -0.05413
O          1.39153       -1.93380       -0.00649
O          3.31073       -0.73991       -0.13190
H          1.30097        2.63173       -0.00898
H          2.70704        1.83813        0.79440
H          2.59885        1.83569       -0.97610
H         -0.61276       -0.61259        0.11146
H         -0.74685        1.26841        0.11821
H          2.07370       -2.63950       -0.04850
