19
METHYL_ISOBUTYL_KETONE.gamout	Energy:    -310.8590382
C          2.39875        2.95526        2.47427
C          2.09496        1.47397        2.18245
C          3.87729        3.34637        2.40966
C          2.37470        1.12277        0.71036
C          0.65209        1.12245        2.57984
C          4.17769        4.84058        2.40796
O          4.77081        2.51199        2.37336
H          1.81238        3.62542        1.80261
H          2.05691        3.22366        3.50314
H          2.79471        0.87677        2.80897
H          2.19625        0.04439        0.51565
H          1.71003        1.69837        0.02841
H          3.42650        1.34322        0.44078
H         -0.08227        1.71968        1.99556
H          0.43304        0.05109        2.38826
H          0.45970        1.31769        3.65641
H          5.26825        5.00895        2.48374
H          3.65334        5.35598        3.24062
H          3.80042        5.29650        1.46689
