12
METHYL_ACRYLATE.gamout	Energy:    -306.2410254
C          3.93171        0.85270        1.21472
C          2.44262        0.89146        1.25845
O          1.92280        1.95207        0.57868
O          1.75577        0.06553        1.83900
C          4.70831        1.75467        0.58269
C          0.49072        2.04212        0.58742
H          4.36176       -0.00271        1.76045
H          5.80674        1.66758        0.58965
H          4.26242        2.60399        0.04175
H          0.23731        2.94076       -0.00427
H          0.03303        1.13943        0.13262
H          0.10627        2.14138        1.62351
