53
METHYL_PALMITATE.gamout	Energy:    -818.1502867
C         18.69196        7.34637        1.36154
O         17.42139        7.63780        1.96156
O         16.41783        6.61305        0.20214
H         18.81487        6.25563        1.20075
H         18.79191        7.85270        0.37900
H         19.45815        7.72157        2.06452
C         16.33578        7.21261        1.25874
C         15.04824        7.59683        1.96913
H          7.29745        8.55395        1.87921
C         13.78818        7.11140        1.24522
H         15.10447        7.20409        3.00906
H         15.05324        8.70470        2.08315
C         12.47806        7.53575        1.92888
H         13.82840        6.00345        1.15581
H         13.81096        7.48708        0.19875
C         11.21327        7.05685        1.19271
H         12.46261        7.15312        2.97637
H         12.45125        8.64726        2.01704
C          9.88901        7.48244        1.85277
H         11.23960        5.94572        1.10453
H         11.23692        7.43754        0.14495
C          8.63396        7.03221        1.08218
H          9.84852        7.08316        2.89310
H          9.87320        8.59264        1.95774
C          7.30118        7.44855        1.73144
H          8.65419        5.92378        0.96150
H          8.67807        7.44336        0.04653
C          6.05591        7.04691        0.91867
H          7.23493        7.00980        2.75426
C          4.71639        7.44758        1.56396
H          6.12421        7.50589       -0.09534
H          6.06678        5.94517        0.74638
C          3.47951        7.09987        0.71330
H          4.72191        8.54437        1.76533
H          4.62726        6.96059        2.56294
C          2.13450        7.48261        1.35839
H          3.48223        6.00782        0.48757
H          3.56841        7.60731       -0.27571
C          0.90439        7.17912        0.48105
H          2.02962        6.95368        2.33431
H          2.14507        8.56948        1.60770
C         -0.44475        7.54499        1.12491
H          1.00679        7.72316       -0.48698
H          0.90200        6.09638        0.21398
C         -1.66467        7.26752        0.22993
H         -0.43744        8.62412        1.40667
H         -0.56083        6.98767        2.08386
C         -3.00551        7.62434        0.88425
H         -1.55310        7.83336       -0.72342
H         -1.66775        6.19203       -0.06143
H         -3.17071        7.04154        1.81592
H         -3.05282        8.70113        1.15550
H         -3.85732        7.41557        0.20517
