27
METHYL_FERULATE.gamout	Energy:    -726.7323546
C          1.19101        0.00106       -0.08900
C          0.30577        1.03963       -0.03902
C          2.64865        0.11873       -0.17308
C         -1.17656        1.13321        0.05043
C          3.31793        1.37604       -0.21174
C          3.43327       -1.05952       -0.21611
O         -2.01129        0.04453        0.10656
O         -1.70789        2.23342        0.07947
C          4.70893        1.43160       -0.28896
C          4.83364       -1.00839       -0.29416
C         -1.59360       -1.31386        0.08529
O          5.47893        2.56685       -0.33181
C          5.48616        0.23238       -0.33105
C          4.83024        3.83212       -0.29667
O          6.83539        0.31815       -0.40538
H          0.83415       -1.03816       -0.06562
H          0.70570        2.06707       -0.06531
H          2.73174        2.30486       -0.17899
H          2.93191       -2.04021       -0.18721
H          5.44315       -1.92368       -0.32731
H         -2.52069       -1.91681        0.14829
H         -0.95235       -1.57237        0.95638
H         -1.06930       -1.57979       -0.85837
H          5.62845        4.59664       -0.33767
H          4.24731        3.96380        0.64222
H          4.15097        3.96551       -1.16790
H          7.04480        1.27897       -0.41733
