6
METHANETHIOL.gamout	Energy:    -438.5834097
C          0.80972        0.99275        0.88106
H         -0.01814        0.28150        0.69332
H          0.94245        1.62231       -0.02105
H          0.53678        1.62723        1.74763
S          2.29262       -0.03295        1.22371
H          3.15787        1.00207        1.42240
