9
METHYL_SULFATE-1.gamout	Energy:    -738.6625939
C         -1.13866       -1.48814        0.85351
O         -1.36226       -2.62667        0.06098
H         -1.49786       -1.62415        1.90485
H         -0.05436       -1.21493        0.90478
H         -1.69660       -0.63678        0.39707
S         -0.55454       -4.06280        0.68850
O          0.89550       -3.68910        0.66814
O         -0.98191       -5.06411       -0.32431
O         -1.13861       -4.22401        2.05808
