15
METHYL_METHACRYLATE.gamout	Energy:    -345.5303825
C         -0.73081        0.85442       -0.03175
C          0.44729        1.51135       -0.13654
C          1.67720        0.82402       -0.65790
C          0.64855        2.95659        0.24082
O          1.47113       -0.48458       -0.97102
O          2.75883        1.37740       -0.79132
C          2.61323       -1.17872       -1.49028
H         -0.81865       -0.20297       -0.32100
H         -1.63377        1.36426        0.34286
H         -0.29650        3.41896        0.58547
H          1.04334        3.53689       -0.61936
H          1.40913        3.05154        1.04465
H          2.28942       -2.22321       -1.65223
H          3.46149       -1.14275       -0.77570
H          2.94993       -0.72769       -2.44694
