26
METHYL_HEPTANOATE.gamout	Energy:    -464.5811068
C          1.28017       -0.07619       -0.08062
C          0.47537       -1.34308       -0.44294
O          1.03214       -2.54255       -0.78835
O         -0.73679       -1.28279       -0.42639
C          2.81028        0.05278       -0.03010
C          2.42389       -2.84006       -0.88602
C          3.24644        1.47589        0.35980
C          4.76975        1.65609        0.42512
C          5.21866        3.07622        0.80310
C          6.74217        3.24173        0.86200
H          0.85607        0.21742        0.90519
H          0.87144        0.68861       -0.77813
H          3.26130       -0.19571       -1.01523
H          3.24258       -0.66545        0.70005
H          2.47978       -3.90318       -1.19036
H          2.95162       -2.72498        0.08310
H          2.93472       -2.22817       -1.65779
H          2.79870        1.74465        1.34493
H          2.81817        2.20263       -0.36894
H          5.21422        1.38205       -0.56054
H          5.19506        0.92823        1.15505
H          4.77469        3.35258        1.78698
H          4.79233        3.80011        0.07145
H          7.19443        2.55870        1.61278
H          7.03263        4.27735        1.13448
H          7.21220        3.01055       -0.11824
