12
METHYLCYCLOPROPANE.gamout	Energy:    -157.0909739
C          1.95540        1.47880        1.71225
C          3.11690        2.13245        0.98915
C          3.07503        0.62424        1.15047
C          0.57209        1.45262        1.09060
H          1.95579        1.59570        2.81137
H          2.92783        2.55092       -0.01405
H          3.85440        2.70174        1.57830
H          3.78351        0.15276        1.85100
H          2.85743        0.01577        0.25649
H          0.62799        1.33459       -0.01275
H         -0.03669        0.60996        1.48370
H          0.01643        2.39285        1.29603
