21
METHYLCYCLOHEXANE.gamout	Energy:    -274.9808997
C          5.25473        2.15682        1.05017
C          3.90982        2.23810        1.78415
C          3.16368        0.88491        1.77015
C          3.00266        3.34707        1.20775
C          1.80698        0.95623        2.49194
C          1.64497        3.42797        1.92667
C          0.91706        2.07174        1.91663
H          5.80162        3.12295        1.08761
H          5.91350        1.37889        1.49107
H          5.10584        1.89954       -0.02132
H          4.11161        2.49615        2.85243
H          3.00077        0.58194        0.70846
H          3.80329        0.09512        2.22292
H          3.52551        4.32815        1.25618
H          2.83336        3.13928        0.12447
H          1.28728       -0.02507        2.43405
H          1.98214        1.15124        3.57546
H          1.81020        3.74403        2.98282
H          1.00919        4.21364        1.46343
H          0.64082        1.81317        0.86771
H         -0.03808        2.13988        2.48130
