19
METHYL_TERT-BUTYL_KETONE.gamout	Energy:    -310.8551576
C         -0.64597        0.05848       -0.00000
C         -1.37312       -1.29844       -0.00000
C         -1.02955        0.86013       -1.26818
C         -1.02955        0.86013        1.26818
C          0.88617       -0.18904       -0.00000
O          1.35314       -1.31899        0.00000
C          1.82756        1.01763        0.00000
H         -1.09999       -1.89816       -0.89096
H         -1.09999       -1.89816        0.89096
H         -2.47284       -1.14757        0.00000
H         -2.12587        1.03807       -1.28553
H         -0.53375        1.85205       -1.31333
H         -0.76557        0.30438       -2.19238
H         -0.76557        0.30438        2.19238
H         -0.53375        1.85205        1.31333
H         -2.12587        1.03807        1.28553
H          1.32490        2.00284       -0.00000
H          2.48860        0.94598        0.88833
H          2.48860        0.94598       -0.88833
