21
METHYL_TERT-PENTYL_ETHER.gamout	Energy:    -312.0426242
C         10.83290       20.75151        0.75574
C         12.36181       20.94404        0.59755
O         12.71288       21.82824        1.68826
C         13.06726       19.58272        0.76585
C         12.71565       21.56390       -0.77007
C          9.99108       22.02693        0.64038
C         14.03738       22.30862        1.75672
H         10.49787       19.99755        0.00937
H         10.66941       20.29306        1.75547
H         14.17013       19.67652        0.68551
H         12.74057       18.87252       -0.02148
H         12.82810       19.14087        1.75507
H         12.31067       20.93995       -1.59332
H         12.29385       22.58427       -0.86741
H         13.81311       21.63155       -0.91900
H          8.92417       21.81650        0.86158
H         10.34838       22.79105        1.35933
H         10.03241       22.46801       -0.37750
H         14.29034       23.01993        0.93344
H         14.12939       22.85509        2.71745
H         14.80522       21.49760        1.75220
