19
METHYLPARABEN.gamout	Energy:    -534.9661980
C          5.79044        2.86531       -1.04581
C          6.49142        1.68696       -0.76932
C          4.38041        2.88865       -0.94403
C          5.80607        0.51285       -0.38748
C          4.39481        0.54490       -0.28826
C          6.61425       -0.70767       -0.10716
C          3.68587        1.71799       -0.56257
O          3.64422        4.00385       -1.19991
O          5.83643       -1.77065        0.25087
C          6.54855       -2.98194        0.53542
O          7.83247       -0.77512       -0.18222
H          6.33383        3.77865       -1.34350
H          7.58914        1.65070       -0.84307
H          3.85702       -0.36709        0.00840
H          2.58858        1.75563       -0.48878
H          4.24940        4.72886       -1.44950
H          5.78177       -3.73110        0.80612
H          7.25911       -2.83714        1.37520
H          7.12408       -3.32268       -0.34995
