44
METOPROLOL.gamout	Energy:    -866.3921845
O         -0.54353       -1.68923       -0.74172
O         -2.10130       -0.02479       -2.69533
O          5.82780       -0.27688       -0.71712
N         -2.86024        1.66533        0.55683
C         -1.93065        0.28493       -1.31825
C         -3.08862        1.16450       -0.79811
C         -3.48882        2.95662        0.89508
C         -1.74011       -0.97511       -0.45826
C         -2.72815        4.11912        0.23951
C         -3.51643        3.10559        2.42113
C          0.63915       -1.24290       -0.20902
C          3.20186       -0.52845        0.81400
C          4.56650       -0.11921        1.33123
C          0.77344       -0.13305        0.65320
C          1.78866       -1.98697       -0.56144
C          2.04677        0.20344        1.15090
C          3.04456       -1.63232       -0.05806
C          5.43734        0.61920        0.30711
C          6.50651        0.35251       -1.77943
H         -1.00136        0.89103       -1.26182
H         -3.16060        2.01917       -1.50135
H         -4.05500        0.59950       -0.90799
H         -4.55145        2.99328        0.52909
H         -3.16843        0.96441        1.24150
H         -2.56698       -1.69014       -0.67391
H         -1.79643       -0.72072        0.62528
H         -2.67336        4.00891       -0.86313
H         -1.68844        4.16567        0.62634
H         -3.23016        5.08624        0.44966
H         -2.48630        3.05730        2.83329
H         -3.96522        4.07476        2.71912
H         -4.11673        2.30005        2.89708
H          4.44531        0.55089        2.20950
H          5.13384       -1.00748        1.68667
H         -2.83594       -0.66564       -2.76310
H          2.13413        1.07338        1.82424
H          3.93122       -2.21497       -0.35186
H         -0.09277        0.48657        0.93057
H          1.66534       -2.84577       -1.23885
H          4.86597        1.48283       -0.12136
H          6.34091        1.04706        0.81597
H          7.44329        0.86377       -1.44173
H          6.78167       -0.43002       -2.51484
H          5.86995        1.11454       -2.29449
