12
N,N-DIMETHYLFORMAMIDE.gamout	Energy:    -248.3308015
O         -0.20109       -0.19463       -0.00985
N          2.08116        0.02802       -0.33422
C          3.28550        0.78132       -0.04618
C          2.18809       -1.14966       -1.17988
C          0.85601        0.39307        0.17890
H          3.77325        1.14263       -0.97958
H          3.02984        1.66247        0.57675
H          4.03038        0.16700        0.50987
H          2.52534       -0.87924       -2.20559
H          2.91317       -1.88064       -0.75816
H          1.18512       -1.61469       -1.23626
H          0.94158        1.32045        0.81772
