30
N,N-DIBUTYLFORMAMIDE.gamout	Energy:    -484.0298547
C         -1.33575       -0.80307       -0.70008
C         -1.96300        0.33000        0.13192
C         -3.40507        0.64193       -0.29056
C         -4.05629        1.76170        0.52938
N          0.01890       -1.19074       -0.32504
C          0.24077       -2.32938        0.41442
O          1.33936       -2.74874        0.75839
C          1.17759       -0.43777       -0.80264
C          1.64931        0.70126        0.11965
C          2.90345        1.40578       -0.41712
C          3.38856        2.55892        0.46946
H         -1.97475       -1.70965       -0.61237
H         -1.34185       -0.52600       -1.77938
H         -1.93367        0.04000        1.20644
H         -1.34310        1.24984        0.04512
H         -3.41966        0.91454       -1.37061
H         -4.01862       -0.28458       -0.20976
H         -4.10108        1.50240        1.60869
H         -3.48839        2.71280        0.44259
H         -5.09312        1.96093        0.19091
H         -0.72739       -2.85103        0.66660
H          2.00469       -1.17127       -0.90937
H          0.93854       -0.04060       -1.81423
H          0.83306        1.44525        0.25417
H          1.85769        0.27383        1.12496
H          3.71981        0.65759       -0.53354
H          2.69925        1.78837       -1.44378
H          4.29632        3.03625        0.04810
H          2.61409        3.34909        0.57228
H          3.64086        2.20795        1.49279
