26
N,N-DIETHYLANILINE.gamout	Energy:    -444.5138707
C          5.61213        4.95910       -1.33163
C          6.20454        3.85806       -2.23003
N          6.92671        2.79487       -1.53622
C          8.37657        2.92312       -1.41108
C          6.24442        1.73400       -0.93934
C          8.87501        3.54639       -0.09444
C          6.93617        0.69386       -0.24885
C          4.82321        1.62300       -1.00990
C          6.24754       -0.39538        0.30395
C          4.84902       -0.49818        0.21182
C          4.15135        0.52695       -0.44925
H          5.04250        5.69166       -1.94204
H          4.91958        4.53436       -0.57668
H          6.40588        5.51231       -0.78965
H          6.91146        4.31301       -2.95641
H          5.39588        3.40459       -2.84592
H          8.84353        1.92307       -1.55051
H          8.72775        3.53742       -2.26796
H          9.98521        3.56506       -0.06933
H          8.51427        4.58870        0.02272
H          8.52301        2.96657        0.78312
H          8.02884        0.72916       -0.14113
H          4.22764        2.39972       -1.50866
H          6.82513       -1.17792        0.82296
H          4.31444       -1.35298        0.65342
H          3.05295        0.48166       -0.53196
