22
N,N-DIMETHYLBUTYLAMINE.gamout	Energy:    -292.1855147
N          0.18469        1.98171        0.26314
C          0.44973       -0.49679       -0.11468
C         -0.47944        0.72587       -0.08418
C         -0.30687       -1.82022       -0.30992
C          0.61394       -3.04630       -0.37217
C         -0.77239        3.03424        0.56557
C          1.16159        2.41746       -0.72313
H          1.02761       -0.52106        0.83651
H          1.19810       -0.38957       -0.93151
H         -1.02503        0.80013       -1.07006
H         -1.26553        0.54658        0.68287
H         -0.91113       -1.76364       -1.24421
H         -1.04225       -1.94856        0.51674
H          0.03690       -3.98514       -0.50359
H          1.32803       -2.97049       -1.21990
H          1.21473       -3.14877        0.55674
H         -1.46460        2.70144        1.36721
H         -1.40009        3.34108       -0.31795
H         -0.24308        3.94129        0.92711
H          0.70838        2.64883       -1.72836
H          1.67366        3.33679       -0.36877
H          1.93964        1.64314       -0.87596
