30
N-BUTYLCYCLOHEXANE.gamout	Energy:    -392.8279281
C         -0.92219       -0.72437       -0.26941
C         -2.10808        0.14211        0.18984
C         -3.47804       -0.41548       -0.23368
C         -4.66508        0.43150        0.23994
C          0.47450       -0.27298        0.20924
C          1.55082       -1.33159       -0.10834
C          2.94803       -0.92238        0.38204
C          3.36025        0.44344       -0.18538
C          2.30470        1.51283        0.13052
C          0.90879        1.09417       -0.35789
H         -1.09135       -1.76682        0.08792
H         -0.92132       -0.79142       -1.38369
H         -2.08434        0.23630        1.30102
H         -2.00293        1.17963       -0.20075
H         -3.50923       -0.51227       -1.34327
H         -3.58295       -1.45334        0.15774
H         -4.62060        1.46445       -0.16755
H         -5.63240       -0.00868       -0.07927
H         -4.69025        0.51619        1.34802
H          0.42998       -0.16930        1.32210
H          1.25779       -2.30721        0.33630
H          1.58081       -1.49060       -1.21240
H          2.94909       -0.87394        1.49571
H          3.69255       -1.69807        0.10421
H          4.35216        0.74787        0.21081
H          3.47678        0.35958       -1.29087
H          2.27335        1.67993        1.23226
H          2.59421        2.48510       -0.32183
H          0.90760        1.03615       -1.47245
H          0.16810        1.87491       -0.08685
