29
N-BUTYL_VALERATE.gamout	Energy:    -503.8926511
C         -0.51304        0.40838       -0.00200
C         -1.69525       -0.54902       -0.00116
C         -3.05864        0.14711        0.00039
C         -4.23637       -0.84049        0.00127
C         -5.60869       -0.15582        0.00298
O         -0.57813        1.62449       -0.00409
O          0.65935       -0.28219       -0.00018
C          1.87130        0.50551       -0.00087
C          3.05305       -0.45703        0.00096
C          4.41292        0.25824        0.00051
C          5.60235       -0.71117        0.00221
H         -1.58282       -1.22014       -0.88235
H         -1.58117       -1.22078        0.87930
H         -3.12644        0.81794        0.88493
H         -3.12820        0.81862       -0.88347
H         -4.15322       -1.50947       -0.88583
H         -4.15133       -1.51016        0.88766
H         -6.43463       -0.89717        0.00354
H         -5.73778        0.48992        0.89769
H         -5.73964        0.49062       -0.89095
H          1.87687        1.16821       -0.89449
H          1.87605        1.17084        0.89081
H          2.97228       -1.12002        0.89112
H          2.97290       -1.12231       -0.88755
H          4.47931        0.92675       -0.88773
H          4.47870        0.92896        0.88712
H          5.58684       -1.37036       -0.89188
H          6.57065       -0.16956        0.00186
H          5.58615       -1.36802        0.89800
