20
N-CAPROIC_ACID.gamout	Energy:    -386.0445162
C         -1.97726        5.27918        1.75578
C         -1.06395        4.13798        1.29247
C          0.38720        4.27134        1.78264
C          1.29891        3.12818        1.31582
C          2.74440        3.25802        1.80576
C          3.65038        2.11699        1.33596
O          4.95011        2.19661        1.75571
O          3.29186        1.19136        0.64314
H         -2.02400        5.33697        2.86462
H         -1.61388        6.26363        1.39001
H         -3.01547        5.14954        1.38595
H         -1.47508        3.16330        1.64094
H         -1.06691        4.08194        0.18022
H          0.39349        4.32454        2.89664
H          0.80384        5.24586        1.43498
H          1.30329        3.06987        0.20577
H          0.89553        2.15053        1.65835
H          3.19452        4.21995        1.46373
H          2.78148        3.29544        2.92010
H          5.06740        2.99979        2.30184
