30
N-CAPRINITRILE.gamout	Energy:    -446.9136777
C        103.97238       20.02299       -0.00000
C        102.66940       19.20302       -0.00029
C        102.89338       17.68036       -0.00002
C        103.75594       21.54649       -0.00024
C        101.59415       16.85867       -0.00018
C        105.05758       22.36777        0.00010
C        101.86274       15.33526        0.00015
C        104.83804       23.88929       -0.00003
C        100.64251       14.52132        0.00012
C        106.13910       24.70152        0.00033
N         99.65764       13.88557        0.00015
H        104.58345       19.73785        0.88772
H        104.58401       19.73766       -0.88728
H        102.05749       19.48469       -0.88810
H        102.05697       19.48493        0.88709
H        103.50445       17.39733        0.88816
H        103.50484       17.39703       -0.88783
H        103.14446       21.83089       -0.88791
H        103.14393       21.83116        0.88699
H        100.97809       17.11714       -0.88898
H        100.97767       17.11742        0.88826
H        105.67025       22.08532        0.88785
H        105.67086       22.08528       -0.88722
H        102.46817       15.04882        0.88909
H        102.46851       15.04843       -0.88844
H        104.22568       24.17099       -0.88702
H        104.22517       24.17112        0.88657
H        105.93737       25.79233        0.00025
H        106.75984       24.47868        0.89490
H        106.76043       24.47869       -0.89384
