56
N-CETYL_ACETATE.gamout	Energy:    -857.4358895
C        139.11499       29.96838        0.20437
C        137.83901       29.11700        0.07156
C        138.04927       27.61739        0.34723
C        138.89681       31.47270       -0.04009
C        136.76925       26.77597        0.19904
C        140.17345       32.32417        0.09146
C        136.95440       25.26127        0.40274
C        139.95273       33.83342       -0.12072
C        137.32550       24.87234        1.83587
C        141.23041       34.68312        0.01441
O        137.27468       23.43780        2.01778
C        141.00815       36.19587       -0.17102
C        138.44032       22.75228        1.83954
C        142.28601       37.04455       -0.03089
C        138.20925       21.26785        2.02370
O        139.50571       23.27652        1.57226
C        142.06218       38.55903       -0.19776
C        143.33768       39.40825       -0.05239
C        143.10889       40.92070       -0.20901
C        144.38554       41.75702       -0.05549
H        139.55070       29.82106        1.21989
H        139.88484       29.58873       -0.50718
H        137.41779       29.24596       -0.95284
H        137.06042       29.51204        0.76536
H        138.47124       27.49245        1.37036
H        138.82620       27.21931       -0.34565
H        138.45992       31.62082       -1.05510
H        138.12806       31.85172        0.67329
H        136.34568       26.94243       -0.81606
H        135.99458       27.14743        0.90998
H        140.62227       32.15702        1.09826
H        140.93456       31.95886       -0.63700
H        136.01095       24.73651        0.13995
H        137.73695       24.87575       -0.28778
H        139.50467       34.00178       -1.12767
H        139.19167       34.19829        0.60818
H        138.34158       25.22592        2.10535
H        136.58756       25.27994        2.55808
H        141.68725       34.49945        1.01473
H        141.98605       34.33006       -0.72578
H        140.55273       36.38084       -1.17173
H        140.25204       36.54825        0.56913
H        142.74679       36.84947        0.96548
H        143.03908       36.70035       -0.77794
H        137.77746       21.06774        3.02500
H        137.47731       20.90272        1.27491
H        139.16590       20.72900        1.90808
H        141.60277       38.75518       -1.19455
H        141.30842       38.90228        0.54912
H        143.79985       39.20942        0.94277
H        144.09218       39.07255       -0.80208
H        142.64933       41.12122       -1.20393
H        142.35476       41.25606        0.53968
H        144.17933       42.84071       -0.17206
H        144.84785       41.61108        0.94451
H        145.14970       41.48053       -0.81376
