32
N-DECANOIC_ACID.gamout	Energy:    -543.1826522
C          4.38241        2.13041        1.50319
C          5.49298        1.15627        1.06830
C          3.32437        2.42002        0.42586
C          6.53823        0.88803        2.16558
C          2.23786        3.40297        0.91247
C          7.66258       -0.08429        1.76362
C          1.17636        3.72745       -0.12281
C          8.69448       -0.33634        2.87626
O          0.51035        2.60874       -0.53174
O          0.91737        4.83347       -0.56021
C          9.82217       -1.30901        2.49385
C         10.83594       -1.54448        3.62036
H          4.84496        3.09226        1.82550
H          3.87405        1.72680        2.41010
H          5.03477        0.19129        0.74944
H          6.00455        1.55820        0.16269
H          2.83734        1.47446        0.10248
H          3.81749        2.84079       -0.47947
H          6.02068        0.49327        3.07134
H          6.98871        1.85777        2.48219
H          1.72006        2.97041        1.79810
H          2.68116        4.36964        1.22410
H          8.18551        0.30740        0.85978
H          7.21539       -1.05672        1.45067
H          8.16935       -0.72488        3.78053
H          9.14080        0.63678        3.18902
H         -0.13953        2.92514       -1.19834
H          9.37724       -2.28258        2.18410
H         10.35144       -0.92413        1.59186
H         10.34701       -1.96719        4.52464
H         11.33017       -0.59734        3.92657
H         11.63267       -2.25147        3.31195
