48
N-DECYLCYCLOHEXANE.gamout	Energy:    -628.5240724
C          3.29796        5.73796        2.78465
C          1.82450        5.74990        2.33441
C          1.57488        5.65487        0.81188
C          3.47542        5.69373        4.31387
C          0.06867        5.54020        0.49862
C          2.19079        6.82880        0.02468
C          4.93801        5.72515        4.79465
C         -0.22764        5.46691       -1.00727
C          1.89429        6.76203       -1.48133
C          5.08952        5.67311        6.32612
C          0.39128        6.64888       -1.76414
C          6.54071        5.73406        6.83746
C          6.66167        5.66413        8.37064
C          8.09981        5.74475        8.91139
C          8.19651        5.64000       10.44208
C          9.62858        5.73424       10.98402
H          3.82246        6.63508        2.38444
H          3.81373        4.86079        2.32832
H          1.33082        6.67221        2.72355
H          1.29641        4.90216        2.82851
H          2.06250        4.71564        0.45005
H          2.97917        4.77842        4.71373
H          2.92516        6.54926        4.77124
H         -0.35385        4.64908        1.01041
H         -0.45543        6.42316        0.93517
H          1.79003        7.78510        0.43736
H          3.28864        6.85972        0.18420
H          5.43295        6.64572        4.40575
H          5.49523        4.87336        4.33924
H          0.18100        4.51410       -1.41654
H         -1.32435        5.43182       -1.17659
H          2.31521        7.65576       -1.98799
H          2.41827        5.88215       -1.92199
H          4.60679        4.74310        6.70859
H          4.50986        6.51192        6.77821
H          0.21047        6.54605       -2.85507
H         -0.11554        7.59226       -1.45334
H          7.02068        6.67194        6.47139
H          7.12898        4.90293        6.38295
H          6.05645        6.48526        8.82154
H          6.18891        4.71989        8.73037
H          8.71676        4.93839        8.44981
H          8.56687        6.70196        8.57975
H          7.57154        6.43892       10.90355
H          7.73732        4.67963       10.77230
H         10.09956        6.70683       10.72424
H         10.27511        4.93217       10.56709
H          9.65067        5.63842       12.08886
