48
N-DODECYLBENZENE.gamout	Energy:    -703.4727328
C          4.83179        0.83667        3.22992
C          4.62382        2.36585        3.15039
C          3.17990        2.80737        2.99632
C          6.30845        0.43082        3.37576
C          2.54364        3.58277        3.98704
C          2.43666        2.46176        1.84735
C          6.55588       -1.08794        3.44816
C          1.21138        4.00217        3.83781
C          1.10549        2.87686        1.69338
C          8.04217       -1.47161        3.57265
C          0.48608        3.65041        2.68930
C          8.31445       -2.98680        3.62894
C          9.80714       -3.35185        3.73106
C         10.09638       -4.86428        3.77276
C         11.59308       -5.21769        3.85796
C         11.89363       -6.72708        3.88971
C         13.39104       -7.06921        3.96635
C         13.68129       -8.57575        3.99499
H          4.23974        0.43333        4.08263
H          4.40485        0.36088        2.31833
H          5.21648        2.76450        2.29438
H          5.05538        2.83780        4.05929
H          6.88514        0.85157        2.51861
H          6.73483        0.91627        4.28440
H          3.10458        3.86749        4.89155
H          2.91101        1.86481        1.05213
H          5.98763       -1.51699        4.30610
H          6.12891       -1.57047        2.53828
H          0.73895        4.60925        4.62521
H          0.54828        2.59838        0.78571
H          8.47400       -0.98671        4.47908
H          8.59897       -1.03504        2.71045
H         -0.55779        3.97882        2.56879
H          7.76477       -3.43177        4.49104
H          7.88200       -3.46865        2.72114
H         10.24398       -2.86895        4.63617
H         10.34818       -2.90159        2.86593
H          9.65864       -5.34435        2.86653
H          9.56054       -5.32058        4.63769
H         12.12366       -4.75821        2.99128
H         12.03402       -4.73729        4.76245
H         11.45455       -7.20827        2.98459
H         11.36803       -7.19182        4.75667
H         13.91588       -6.60514        3.09991
H         13.83073       -6.58868        4.87040
H         13.29248       -9.08105        3.08491
H         13.20538       -9.06360        4.87270
H         14.77035       -8.77773        4.04995
