33
N-HEXYLCYCLOPENTANE.gamout	Energy:    -432.1001236
C          1.66531        3.60004        1.37395
C          0.48715        4.41798        1.93367
C          2.89675        4.16016        2.11558
C          1.07183        5.83671        2.19660
C          2.61811        5.68215        2.11628
C          4.25041        3.73770        1.52155
C          8.90917        0.51368        1.15961
C          8.57087        2.00993        1.15547
C          7.17040        2.33660        1.70139
C          6.84205        3.83887        1.69251
C          5.48154        4.23035        2.30206
H          1.78278        3.78317        0.28070
H          1.53915        2.50555        1.50733
H         -0.38671        4.43229        1.25128
H          0.13774        3.96351        2.88588
H          2.84885        3.79332        3.17001
H          0.71009        6.56993        1.44658
H          0.74835        6.22212        3.18536
H          3.00353        6.11510        1.16563
H          3.13910        6.21209        2.93874
H          4.27069        2.62750        1.45145
H          4.30831        4.10948        0.47062
H          9.92536        0.32702        0.75577
H          8.87609        0.09092        2.18687
H          8.19372       -0.06985        0.54082
H          9.33327        2.56265        1.75140
H          8.65789        2.40935        0.11892
H          6.41304        1.77677        1.10632
H          7.08349        1.94609        2.74260
H          7.64260        4.37988        2.24572
H          6.89536        4.22124        0.64602
H          5.44398        5.33930        2.37767
H          5.42573        3.85588        3.35103
