23
N-HEPTANE.gamout	Energy:    -276.1772244
C          4.94103        1.12032        1.61554
C          3.69014        1.87224        1.13651
C          2.36630        1.20814        1.54360
C          6.26552        1.78669        1.21109
C          1.11431        1.95510        1.05668
C          7.50930        1.02639        1.68607
C         -0.20180        1.28643        1.47136
H          4.91883        0.07838        1.21882
H          4.90598        1.01619        2.72524
H          3.71522        2.91540        1.52943
H          3.72389        1.97183        0.02649
H          2.34453        0.16327        1.15455
H          2.32789        1.11229        2.65390
H          6.28732        2.82642        1.61085
H          6.29421        1.89409        0.10249
H          1.14149        3.00024        1.44173
H          1.15380        2.04594       -0.05307
H          7.53012        0.93407        2.79346
H          8.44608        1.53558        1.37764
H          7.53807       -0.00407        1.27075
H         -0.28952        1.21648        2.57693
H         -0.27334        0.25229        1.07094
H         -1.08436        1.84880        1.10156
