26
N-HEPTYL_FORMATE.gamout	Energy:    -464.5920777
C         86.88185       10.19935       -0.18840
C         85.62258        9.33125       -0.33659
C         85.84429        7.85645        0.03259
C         86.63771       11.66000       -0.56460
C         84.58672        6.98639       -0.11358
O         87.85259       12.43095       -0.50586
C         84.80276        5.51006        0.25413
C         88.04486       13.23609        0.57021
C         83.54224        4.64986        0.10385
O         89.04797       13.88233        0.73686
H         87.25542       10.15086        0.85922
H         87.69954        9.80077       -0.82831
H         85.25215        9.39559       -1.38583
H         84.80494        9.74860        0.29577
H         86.21823        7.79131        1.08042
H         86.65881        7.43735       -0.60191
H         86.26949       11.74374       -1.60876
H         85.86666       12.11787        0.09947
H         84.21388        7.05332       -1.16219
H         83.77156        7.40797        0.51956
H         85.17643        5.44515        1.30155
H         85.61811        5.09208       -0.37935
H         87.15565       13.23310        1.26851
H         83.73174        3.59106        0.37680
H         83.16595        4.66211       -0.94162
H         82.71945        5.01866        0.75340
