29
N-HEPTYL_ACETATE.gamout	Energy:    -503.8917833
C          6.93334        1.41615        2.87419
C          5.80789        2.28052        2.28589
C          8.27281        2.13956        2.92738
C          4.44953        1.56433        2.23989
O          9.25492        1.21939        3.45765
C          3.31830        2.40741        1.63336
C         10.51107        1.71567        3.62946
C          1.95824        1.69305        1.60095
C         11.44200        0.64298        4.15935
O         10.81797        2.86770        3.38437
C          0.83309        2.53745        0.98917
H          7.05147        0.48808        2.27144
H          6.66039        1.08391        3.90049
H          6.08830        2.60285        1.25637
H          5.70945        3.22043        2.87686
H          8.23478        3.04395        3.57302
H          8.60072        2.47670        1.91899
H          4.16329        1.25224        3.27109
H          4.55513        0.61767        1.66087
H          3.59936        2.71031        0.59763
H          3.21934        3.35962        2.20499
H          1.67706        1.39604        2.63739
H          2.05955        0.73909        1.03466
H         11.46691       -0.22057        3.46407
H         12.45715        1.06198        4.27650
H         11.07473        0.26516        5.13518
H         -0.13434        1.99372        0.99056
H          0.68525        3.48351        1.55289
H          1.05946        2.81329       -0.06325
