50
N-HEXADECANE.gamout	Energy:    -629.7224399
C          4.53945        6.86029        4.88983
C          3.43015        7.87631        4.55694
C          3.34915        9.06414        5.53149
C          4.62039        5.67246        3.91521
C          2.24059       10.08187        5.20096
C          5.72903        4.65445        4.24532
C          2.16306       11.26847        6.17798
C          5.80671        3.46789        3.26812
C          1.05652       12.29086        5.85402
C          6.91354        2.44568        3.59197
C          0.98482       13.47463        6.83385
C          6.98577        1.26189        2.61211
C         -0.11880       14.49798        6.51418
C          8.08983        0.23900        2.93194
C         -0.17313       15.67139        7.50043
C          8.14497       -0.93455        1.94583
H          5.52310        7.38507        4.91117
H          4.38521        6.47570        5.92505
H          3.58425        8.26101        3.52174
H          2.44649        7.35154        4.53559
H          4.33328        9.58805        5.55280
H          3.19555        8.67869        6.56652
H          4.77384        6.05809        2.88023
H          3.63623        5.14856        3.89387
H          1.25624        9.55836        5.18014
H          2.39402       10.46777        4.16607
H          5.57567        4.26837        5.28014
H          6.71340        5.17795        4.26614
H          3.14843       11.79015        6.19866
H          2.01096       10.88090        7.21248
H          5.95866        3.85569        2.23368
H          4.82149        2.94592        3.24737
H          1.20809       12.67981        4.81996
H          0.07033       11.77066        5.83463
H          7.89954        2.96624        3.61148
H          6.76205        2.05656        4.62598
H          1.97070       13.99571        6.85350
H          0.83347       13.08672        7.86851
H          7.13700        1.64987        1.57747
H          6.00012        0.74035        2.59240
H          0.03144       14.88705        5.48091
H         -1.10490       13.97937        6.49655
H          7.93960       -0.15009        3.96521
H          9.07569        0.75806        2.94971
H         -0.36212       15.32140        8.53811
H         -0.97866       16.38754        7.23865
H          0.78404       16.23601        7.51237
H          8.95083       -1.65027        2.20789
H          8.33403       -0.58467        0.90811
H          7.18812       -1.49969        1.93377
