38
N-LAURIC_ACID.gamout	Energy:    -621.7484496
C          4.62900        4.93113       -3.84213
C          5.97111        4.49779       -3.22521
C          4.65433        5.07480       -5.37296
C          5.91439        4.28777       -1.70154
C          3.29429        5.50759       -5.95819
C          7.24784        3.85349       -1.06662
C          3.26119        5.60039       -7.47270
C          7.16310        3.59675        0.44885
C          8.49065        3.16364        1.09717
C          8.39172        2.88447        2.60696
C          9.71653        2.45522        3.25895
C          9.60096        2.18032        4.76339
H          4.30717        5.89682       -3.38711
H          3.84201        4.19347       -3.56004
H          6.31020        3.55350       -3.71156
H          6.75214        5.25565       -3.46669
H          4.95743        4.10559       -5.82967
H          5.42859        5.81259       -5.67610
H          5.56214        5.22640       -1.21347
H          5.13468        3.52423       -1.47188
H          3.02296        6.51131       -5.55909
H          2.48642        4.80697       -5.66714
H          7.61225        2.92990       -1.57415
H          8.02378        4.62910       -1.26578
H          6.78836        4.51615        0.95647
H          6.39032        2.81610        0.64143
H          9.26243        3.94877        0.91987
H          8.87056        2.25124        0.58072
H          7.62437        2.09464        2.78373
H          8.00626        3.79364        3.12526
H         10.48406        3.24379        3.08369
H         10.10086        1.54550        2.74301
H          8.87449        1.36612        4.97408
H          9.25631        3.08090        5.31607
H         10.57529        1.87701        5.19785
O          4.22783        6.43651       -7.95171
O          2.48136        5.02294       -8.20761
H          4.12300        6.41726       -8.92923
