13
N-METHYLPYRROLE.gamout	Energy:    -249.2994538
C          0.70214        1.95719        0.98886
N          1.98491        1.84203        1.66014
C          2.91566        0.84273        1.44037
C          2.52362        2.77717        2.52538
C          4.05686        1.13629        2.18191
C          3.80802        2.36462        2.87085
H         -0.02052        2.48296        1.64398
H          0.78003        2.51670        0.03053
H          0.29847        0.94812        0.77302
H          2.68649        0.00127        0.77520
H          1.94445        3.65858        2.82632
H          4.96475        0.52281        2.23211
H          4.48609        2.88573        3.55771
