19
N-NITROSODIETHANOLAMINE.gamout	Energy:    -493.1686975
O          3.11839       -1.59051       -0.13807
O         -3.06750       -1.16473       -0.40265
O         -0.85062        2.41196        0.08443
N          0.16539        0.52652        0.50426
N          0.23435        1.85424        0.23205
C          1.44031       -0.14715        0.70258
C         -1.12801       -0.13518        0.67075
C          1.89149       -0.98321       -0.50175
C         -1.81375       -0.55247       -0.64955
H          1.37962       -0.80460        1.59711
H          2.19428        0.64007        0.90554
H         -1.78928        0.59383        1.19042
H         -0.98716       -1.02124        1.32199
H          1.98540       -0.30580       -1.38661
H          1.10470       -1.74050       -0.75090
H         -1.19140       -1.30693       -1.17672
H         -1.89260        0.33914       -1.31337
H          3.45643       -2.07441       -0.91297
H         -3.68936       -0.46074       -0.13741
