31
N-NONYLAMINE.gamout	Energy:    -410.0469681
C         86.98333       10.04850        0.01042
C         85.66967        9.24508        0.00436
C         85.86669        7.71887        0.00318
C         86.79088       11.57500        0.01294
C         84.55646        6.91168       -0.00313
C         88.10487       12.37253        0.01399
C         84.75946        5.38776       -0.00411
C         87.90840       13.89425        0.02508
C         83.44979        4.58879       -0.01110
N         89.19935       14.58811       -0.02741
H         87.58803        9.75301        0.89919
H         87.59441        9.75683       -0.87503
H         85.06506        9.53935       -0.88487
H         85.05784        9.53669        0.88965
H         86.47183        7.42555        0.89244
H         86.47879        7.42764       -0.88199
H         86.18728       11.87258       -0.87563
H         86.18194       11.86885        0.89932
H         83.95033        7.20217       -0.89277
H         83.94263        7.20009        0.88197
H         88.71344       12.08005        0.90239
H         88.72059       12.10788       -0.87436
H         85.36558        5.09821        0.88469
H         85.37303        5.10060       -0.88861
H         87.32377       14.18863       -0.87604
H         87.26532       14.16791        0.90517
H         83.63967        3.49574       -0.01194
H         82.83606        4.82086       -0.90814
H         82.82740        4.81782        0.88080
H         89.04886       15.60589       -0.04668
H         89.71797       14.40732        0.84462
