30
N-NONYL_MERCAPTAN.gamout	Energy:    -752.8466709
C         86.98203       10.05474        0.00015
C         85.66965        9.24890       -0.00007
C         85.87002        7.72314        0.00016
C         86.78307       11.58031       -0.00012
C         84.56065        6.91428       -0.00005
C         88.10162       12.37660        0.00012
C         84.76575        5.39071        0.00007
C         87.88802       13.89493       -0.00013
C         83.45727        4.59037       -0.00009
S         89.52965       14.74495        0.00038
H         87.59013        9.76378        0.88787
H         87.59056        9.76354       -0.88719
H         85.06140        9.54061       -0.88775
H         85.06093        9.54085        0.88721
H         86.47864        7.43198        0.88778
H         86.47900        7.43172       -0.88713
H         86.17867       11.87569       -0.88869
H         86.17823       11.87606        0.88804
H         83.95058        7.20288       -0.88772
H         83.95017        7.20292        0.88734
H         88.70893       12.09492        0.88989
H         88.70945       12.09473       -0.88925
H         85.37563        5.10325        0.88705
H         85.37590        5.10309       -0.88668
H         87.31461       14.20743       -0.89849
H         87.31399       14.20767        0.89775
H         83.64839        3.49753       -0.00003
H         82.83840        4.81949       -0.89446
H         82.83809        4.81951        0.89407
H         89.04770       16.02086       -0.00001
