39
N-NONYLBENZENE.gamout	Energy:    -585.6249866
C         19.58580        9.40350       -1.34624
C         18.11204        9.77550       -1.62366
C         17.11394        8.93581       -0.85310
C         20.59176       10.23638       -2.15772
C         16.40641        7.89146       -1.48181
C         16.88952        9.15448        0.52280
C         22.06608        9.88959       -1.88363
C         15.50098        7.09374       -0.76443
C         15.99001        8.35724        1.24643
C         23.06781       10.69612       -2.72949
C         15.29032        7.32263        0.60407
C         24.54565       10.36936       -2.44819
C         25.54145       11.16206       -3.31259
C         27.01802       10.84689       -3.02518
C         27.99839       11.63963       -3.89973
H         19.73504        8.32133       -1.56251
H         19.78991        9.52189       -0.25762
H         17.95967       10.85230       -1.38385
H         17.91118        9.67420       -2.71262
H         20.38026       10.10412       -3.24468
H         20.42347       11.31956       -1.95283
H         16.56177        7.70677       -2.55724
H         17.42212        9.97190        1.03489
H         22.22694        8.80103       -2.06371
H         22.28330       10.04762       -0.80154
H         14.95534        6.28883       -1.27984
H         15.82924        8.54894        2.31875
H         22.85595       10.52330       -3.81056
H         22.89426       11.78534       -2.56415
H         14.57957        6.70032        1.16846
H         24.71535        9.27788       -2.60244
H         24.76475       10.55493       -1.37080
H         25.33022       10.96729       -4.39014
H         25.36513       12.25403       -3.16814
H         27.23527       11.04590       -1.95077
H         27.19532        9.75582       -3.16685
H         27.87566       12.73505       -3.75629
H         27.84080       11.43087       -4.97989
H         29.05206       11.38869       -3.66156
