36
N-OCTYLBENZENE.gamout	Energy:    -546.3414700
C          2.55166        6.32299        2.12865
C          1.37352        5.53826        1.50257
C          1.39389        4.04924        1.78893
C          3.93302        5.97305        1.55483
C          1.79566        3.11527        0.81171
C          1.03681        3.56117        3.06426
C          5.08364        6.80105        2.15327
C          1.84806        1.74129        1.09792
C          1.08629        2.18990        3.35586
C          6.47618        6.43839        1.60550
C          1.49621        1.27298        2.37341
C          7.62552        7.27218        2.19730
C          9.01814        6.89620        1.66370
C         10.15502        7.73799        2.25778
H          2.35747        7.41073        1.99174
H          2.55388        6.15014        3.22927
H          0.42215        5.96835        1.88370
H          1.37282        5.70075        0.40256
H          3.91446        6.11304        0.44848
H          4.13514        4.88935        1.71451
H          2.06735        3.47111       -0.19508
H          0.70507        4.26842        3.84222
H          4.89000        7.88440        1.97153
H          5.08493        6.68116        3.26196
H          2.16443        1.03083        0.31825
H          0.79863        1.83359        4.35701
H          6.47563        6.55169        0.49602
H          6.67248        5.35683        1.79307
H          1.53512        0.19640        2.60031
H          7.62040        7.17120        3.30803
H          7.43713        8.35308        1.99629
H          9.02188        6.99438        0.55376
H          9.20774        5.81726        1.86746
H         10.02311        8.81724        2.02846
H         11.14135        7.42961        1.85473
H         10.19994        7.63621        3.36350
