18
N-PENTANOL.gamout	Energy:    -272.7668044
C          1.41640        1.99445        1.75116
C          2.78230        1.68792        1.12351
C          3.93248        1.64002        2.14274
C          0.27364        2.04222        0.73972
C          5.29751        1.33343        1.51473
O         -0.93145        2.33199        1.43598
H          1.44820        2.97060        2.28500
H          1.16520        1.23147        2.52163
H          2.73447        0.71432        0.58194
H          3.01669        2.45230        0.34618
H          3.97797        2.61249        2.68379
H          3.69646        0.87704        2.91910
H          0.21754        1.06133        0.19983
H          0.50189        2.81625       -0.03837
H          5.29282        0.34986        0.99768
H          5.57754        2.09988        0.76029
H          6.10320        1.30614        2.27748
H         -1.65224        2.35905        0.78122
