77
N-PENTACOSANE.gamout	Energy:    -983.2586683
C         12.56300        6.29409        2.74049
C         11.04519        6.42907        2.97699
C         10.22278        6.94154        1.78062
C         12.98200        5.20744        1.73774
C          8.72298        7.09522        2.09251
C         14.50221        5.10226        1.50638
C          7.87612        7.61001        0.91474
C         15.35529        4.69197        2.72355
C          6.37904        7.80932        1.22608
C         15.04396        3.29476        3.28431
C          5.59125        6.52164        1.52671
C         15.94652        2.83393        4.44683
C          4.08384        6.74908        1.74908
C         17.41341        2.55578        4.07256
C          3.28947        5.46745        2.06406
C         18.26148        2.00800        5.23601
C          1.78344        5.70070        2.28195
C         19.72689        1.70925        4.86636
C          0.95090        4.42809        2.53645
C         20.57127        1.14327        6.02310
C          1.25528        3.70519        3.85853
C         22.03112        0.84007        5.64671
C          0.41975        2.43596        4.10745
C         22.85971        0.26844        6.80434
C         -1.08181        2.68176        4.30060
H         13.04319        6.09187        3.72344
H         12.97277        7.27492        2.40204
H         10.88751        7.11762        3.83746
H         10.63677        5.44369        3.30334
H         10.63421        7.92346        1.44807
H         10.34769        6.25271        0.91383
H         12.50017        5.40510        0.75506
H         12.58065        4.22304        2.07165
H          8.32460        6.11385        2.43703
H          8.60013        7.79090        2.95596
H         14.87554        6.08000        1.12541
H         14.68204        4.37305        0.68429
H          8.29432        8.58136        0.56869
H          7.98127        6.91150        0.05147
H         15.24462        5.44722        3.53565
H         16.42370        4.73695        2.41798
H          6.27463        8.50978        2.08771
H          5.90483        8.32589        0.36148
H         13.98895        3.26517        3.63473
H         15.10401        2.55101        2.45452
H          5.73764        5.79969        0.68923
H          6.01426        6.02518        2.43002
H         15.91307        3.59103        5.26548
H         15.50727        1.90710        4.88027
H          3.64834        7.24120        0.84744
H          3.94559        7.47743        2.58231
H         17.43896        1.82661        3.22873
H         17.88803        3.48539        3.68338
H          3.72788        4.98660        2.96842
H          3.42799        4.73441        1.23498
H         18.23914        2.73183        6.08436
H         17.78558        1.07727        5.62491
H          1.36929        6.22286        1.38985
H          1.64083        6.40659        3.13370
H         20.20698        2.64081        4.48525
H         19.74896        0.98975        4.01431
H          1.09818        3.71567        1.69074
H         -0.12453        4.70894        2.50926
H         20.09168        0.21148        6.40492
H         20.55632        1.85978        6.87790
H          2.33137        3.42572        3.88656
H          1.10492        4.41366        4.70720
H         22.51328        1.77122        5.26970
H         22.04730        0.12631        4.79104
H          0.81927        1.92034        5.00880
H          0.57428        1.72476        3.26317
H         23.90429        0.06198        6.49356
H         22.90056        0.97251        7.66343
H         22.42926       -0.68442        7.18099
H         -1.55781        3.11181        3.39429
H         -1.61609        1.73761        4.53260
H         -1.27246        3.38557        5.13982
