47
N-PENTADECANE.gamout	Energy:    -590.4394695
C          2.56745        1.58721        5.21974
C          3.29019        2.78365        4.57415
C          4.69016        2.45411        4.02475
C          1.16805        1.91672        5.77097
C          5.41742        3.65039        3.38352
C          0.44384        0.72185        6.41846
C          6.81964        3.31894        2.83987
C         -0.95660        1.05355        6.96706
C          7.55531        4.51367        2.20479
C         -1.68686       -0.13673        7.61407
C          8.95953        4.17993        1.67011
C         -3.08628        0.20400        8.15471
C          9.69852        5.37427        1.04356
C         -3.81065       -0.98625        8.79608
C         11.09918        5.02826        0.52211
H          2.48296        0.76235        4.47459
H          3.19817        1.17845        6.04380
H          3.37441        3.60758        5.32038
H          2.66059        3.19381        3.74995
H          4.60644        1.63017        3.27849
H          5.31795        2.04320        4.85002
H          0.53824        2.32562        4.94626
H          1.25291        2.74232        6.51534
H          4.79183        4.06347        2.55773
H          5.50033        4.47260        4.13186
H          1.07330        0.31345        7.24367
H          0.35918       -0.10384        5.67417
H          7.44191        2.90490        3.66782
H          6.73790        2.49634        2.09185
H         -0.87246        1.88019        7.71041
H         -1.58385        1.46230        6.14022
H          6.93669        4.93040        1.37553
H          7.63665        5.33455        2.95483
H         -1.06429       -0.54666        8.44396
H         -1.77381       -0.96438        6.87197
H          8.88282        3.35961        0.91883
H          9.57709        3.76386        2.50075
H         -2.99988        1.03184        8.89515
H         -3.70622        0.61329        7.32387
H          9.08467        5.79185        0.21241
H          9.77397        6.19226        1.79623
H         -3.94914       -1.81649        8.07061
H         -4.81478       -0.69771        9.16878
H         -3.24057       -1.39509        9.65834
H         11.59974        5.91445        0.08159
H         11.05905        4.24200       -0.26209
H         11.75215        4.64741        1.33700
