44
N-TETRADECANE.gamout	Energy:    -551.1563872
C          8.39126       -0.32420       -0.00005
C          7.09760        0.49940        0.00005
C          5.81871       -0.35421       -0.00004
C          4.51742        0.46536        0.00003
C          3.23471       -0.38458       -0.00001
C          1.93434        0.43799        0.00002
C          0.65077       -0.41102        0.00001
C         -0.64949        0.41198        0.00001
C         -1.93324       -0.43700        0.00003
C         -3.23399        0.38547       -0.00002
C         -4.51739       -0.46436        0.00003
C         -5.81973        0.35428       -0.00004
C         -7.09806       -0.50032        0.00006
C         -8.39288        0.32161       -0.00005
H          8.45702       -0.98041        0.89446
H          8.45705       -0.98016       -0.89473
H          9.28932        0.32759        0.00004
H          7.08690        1.17363        0.88702
H          7.08686        1.17386       -0.88676
H          5.82985       -1.02895       -0.88786
H          5.82980       -1.02912        0.88767
H          4.51021        1.14020        0.88766
H          4.51013        1.14033       -0.88752
H          3.24215       -1.05942       -0.88764
H          3.24208       -1.05951        0.88754
H          1.92750        1.11290        0.88759
H          1.92741        1.11296       -0.88752
H          0.65782       -1.08593       -0.88757
H          0.65774       -1.08597        0.88757
H         -0.65621        1.08692        0.88757
H         -0.65630        1.08691       -0.88756
H         -1.92603       -1.11199       -0.88751
H         -1.92612       -1.11196        0.88760
H         -3.24109        1.06041        0.88755
H         -3.24116        1.06034       -0.88765
H         -4.50966       -1.13940       -0.88750
H         -4.50977       -1.13930        0.88764
H         -5.83127        1.02917        0.88771
H         -5.83136        1.02903       -0.88791
H         -7.08677       -1.17482       -0.88675
H         -7.08683       -1.17462        0.88703
H         -9.28913       -0.33237        0.00004
H         -8.46026        0.97759        0.89454
H         -8.46031        0.97736       -0.89481
