104
N-TETRATRIACONTANE.gamout	Energy:   -1336.8131621
C         22.25849        1.72265        1.94830
C         20.95469        1.12761        1.38744
C         19.67609        1.72168        2.00485
C         23.53939        1.12883        1.33543
C         18.37039        1.12685        1.44803
C         24.84126        1.72386        1.90137
C         17.09278        1.72059        2.06857
C         26.12550        1.13068        1.29416
C         15.78567        1.12572        1.51426
C         27.42489        1.72617        1.86597
C         14.50838        1.71925        2.13622
C         28.71235        1.13336        1.26489
C         13.20097        1.12396        1.58262
C         30.00907        1.72921        1.84277
C         11.92316        1.71720        2.20407
C         31.29956        1.13645        1.24796
C         10.61637        1.12151        1.64912
C         32.59387        1.73218        1.83170
C          9.33710        1.71435        2.26807
C         33.88687        1.13903        1.24272
C          8.03189        1.11834        1.70965
C         35.17888        1.73422        1.83219
C          6.75052        1.71084        2.32471
C         36.47408        1.14046        1.24845
C          5.44713        1.11512        1.76165
C         37.76444        1.73440        1.84285
C          4.16377        1.70757        2.37248
C         39.06099        1.13972        1.26299
C          2.86140        1.11467        1.80639
C         40.35101        1.72986        1.85953
C          1.58116        1.70927        2.41610
C         41.64351        1.13227        1.27956
C          0.28988        1.11282        1.84191
C         42.92275        1.72557        1.88312
H         22.28001        1.57829        3.05385
H         22.25479        2.82669        1.79156
H         20.95852        0.02364        1.54487
H         20.93107        1.27130        0.28189
H         19.70156        1.57730        3.11030
H         19.67256        2.82575        1.84828
H         23.51947        1.27270        0.22981
H         23.54244        0.02480        1.49255
H         18.37478        0.02288        1.60547
H         18.34397        1.27058        0.34254
H         24.83789        2.82791        1.74459
H         24.85836        1.57947        3.00702
H         17.08872        2.82473        1.91225
H         17.12043        1.57614        3.17396
H         26.11044        1.27465        0.18845
H         26.12844        0.02659        1.45105
H         15.75765        1.26938        0.40879
H         15.79030        0.02176        1.67184
H         27.42188        2.83019        1.70892
H         27.43714        1.58198        2.97174
H         14.50385        2.82338        1.97983
H         14.53691        1.57493        3.24161
H         28.70233        1.27727        0.15910
H         28.71495        0.02926        1.42179
H         13.17272        1.26747        0.47714
H         13.20598        0.02003        1.74039
H         30.00651        2.83320        1.68538
H         30.01625        1.58531        2.94863
H         11.95103        1.57310        3.30952
H         11.91833        2.82131        2.04750
H         31.29463        1.28033        0.14212
H         31.30151        0.03235        1.40492
H         10.62154        0.01758        1.80687
H         10.58963        1.26500        0.54356
H         32.59216        2.83615        1.67418
H         32.59637        1.58845        2.93762
H          9.36237        1.57034        3.37358
H          9.33225        2.81846        2.11135
H         33.88685        1.28293        0.13688
H         33.88780        0.03493        1.39972
H          8.00829        1.26208        0.60404
H          8.03682        0.01437        1.86706
H         35.17830        2.83820        1.67479
H         35.17673        1.59045        2.93810
H          6.74624        2.81498        2.16813
H          6.77222        1.56664        3.43029
H         36.47356        0.03633        1.40525
H         36.47837        1.28459        0.14264
H          5.42707        1.25947        0.65606
H          5.45149        0.01103        1.91842
H         37.75857        1.59013        2.94867
H         37.76539        2.83847        1.68604
H          4.18136        1.56277        3.47807
H          4.16005        2.81179        2.21632
H         39.06892        1.28457        0.15728
H         39.05925        0.03550        1.41921
H          2.86104        0.01028        1.96211
H          2.84095        1.26023        0.70080
H         40.34624        1.58430        2.96532
H         40.35734        2.83426        1.70392
H          1.58022        2.81266        2.26065
H          1.59795        1.56336        3.52067
H         41.65180        1.27829        0.17496
H         41.63845        0.02886        1.43493
H          0.23494        0.01631        2.01463
H         -0.60931        1.56741        2.30582
H          0.21789        1.27641        0.74501
H         42.96999        1.56191        2.98140
H         42.98396        2.82195        1.71170
H         43.83103        1.26883        1.43959
