51
N-TRIDECYLBENZENE.gamout	Energy:    -742.7555152
C         15.16193        6.52404        4.73768
C         13.74830        6.25616        5.30378
C         13.43366        4.80329        5.61594
C         16.31385        6.16822        5.69023
C         13.13114        4.38296        6.92749
C         13.41817        3.83278        4.59076
C         17.71048        6.46573        5.11760
C         12.82365        3.04092        7.20918
C         13.11368        2.49118        4.86561
C         18.86995        6.11425        6.06735
C         12.81525        2.08884        6.17824
C         20.26857        6.40589        5.49468
C         21.42684        6.05491        6.44575
C         22.82595        6.34531        5.87392
C         23.98335        5.99529        6.82641
C         25.38328        6.28562        6.25630
C         26.54045        5.93789        7.20852
C         27.93714        6.23139        6.63719
C         29.08228        5.88347        7.59701
H         15.28573        5.97224        3.77791
H         15.22738        7.60271        4.46962
H         13.00319        6.62924        4.56608
H         13.59875        6.86721        6.22035
H         16.24911        5.09003        5.96173
H         16.18023        6.72580        6.64676
H         13.13333        5.12397        7.74294
H         13.63836        4.13445        3.55424
H         17.84002        5.90809        4.16049
H         17.77604        7.54476        4.84236
H         12.58910        2.73885        8.24159
H         13.10463        1.75396        4.04782
H         18.74256        6.67230        7.02442
H         18.80247        5.03564        6.34186
H         12.57409        1.03673        6.39445
H         20.33505        7.48435        5.21836
H         20.39710        5.84711        4.53814
H         21.35977        4.97665        6.72237
H         21.29872        6.61419        7.40202
H         22.89257        7.42349        5.59655
H         22.95479        5.78556        4.91803
H         23.85383        6.55541        7.78203
H         23.91621        4.91725        7.10404
H         25.44989        7.36373        5.97859
H         25.51393        5.72542        5.30088
H         26.41241        6.49842        8.16429
H         26.47769        4.85964        7.48704
H         27.99973        7.30894        6.35993
H         28.06796        5.67184        5.68249
H         29.07604        4.80441        7.86276
H         29.00342        6.45666        8.54584
H         30.07119        6.11202        7.15004
