45
N-UNDECYLBENZENE.gamout	Energy:    -664.1906273
C          9.47675        6.98613        0.51716
C          8.92352        5.55860        0.29685
C          7.63847        5.28894        1.05364
C         10.74199        7.29367       -0.30140
C          7.65548        4.74572        2.35448
C          6.38800        5.60836        0.48417
C         11.31377        8.70621       -0.07605
C          6.46393        4.52960        3.06491
C          5.19382        5.39374        1.18899
C         12.56347        9.02422       -0.91824
C          5.22693        4.85234        2.48423
C         13.13701       10.43645       -0.69494
C         14.37733       10.75881       -1.54948
C         14.94975       12.17181       -1.32956
C         16.18806       12.49572       -2.18430
C         16.75265       13.90979       -1.96720
C         17.99140       14.21688       -2.81826
H          9.68155        7.12783        1.60280
H          8.67844        7.72152        0.26759
H          8.74905        5.40185       -0.79071
H          9.69698        4.81811        0.59778
H         10.51587        7.16010       -1.38519
H         11.52653        6.53692       -0.06652
H          8.62117        4.48393        2.81609
H          6.35036        6.03070       -0.53330
H         11.55419        8.83579        1.00493
H         10.52097        9.45872       -0.29599
H          6.50176        4.09996        4.07794
H          4.22962        5.64601        0.72169
H         13.35446        8.26823       -0.70313
H         12.31855        8.89771       -1.99884
H          4.29118        4.67954        3.03731
H         13.39068       10.56285        0.38358
H         12.34175       11.18998       -0.90292
H         15.17222       10.00466       -1.34228
H         14.12274       10.63261       -2.62788
H         14.15368       12.92475       -1.53687
H         15.20541       12.29970       -0.25162
H         15.93637       12.36598       -3.26314
H         16.98767       11.74715       -1.97419
H         15.95562       14.65784       -2.18321
H         16.99993       14.04191       -0.88877
H         17.77185       14.12876       -3.90418
H         18.82375       13.51620       -2.59189
H         18.36404       15.24562       -2.63701
