32
NARINGENIN.gamout	Energy:    -954.2553659
O          0.08552       -0.74926       -0.04027
O          1.71383        3.03373        0.30552
O          4.14775        1.85264        0.24822
O          4.22693       -2.91793       -0.44632
O         -6.26292       -0.52518       -0.35253
C         -0.68932        0.33014        0.52860
C         -0.22891        1.66467       -0.06293
C         -2.15344        0.03680        0.29682
C          2.08017        0.66106        0.10075
C          1.27012        1.89911        0.15212
C          1.43689       -0.60778       -0.05268
C          3.51019        0.66950        0.09176
C          2.15997       -1.79475       -0.23445
C         -3.11039        0.35600        1.28043
C         -2.60391       -0.49524       -0.92513
C          4.23711       -0.51953       -0.09396
C          3.56218       -1.74620       -0.26482
C         -4.47871        0.16936        1.05370
C         -3.97031       -0.69633       -1.16127
C         -4.92042       -0.35848       -0.17591
H         -0.48897        0.34081        1.62719
H         -0.78230        2.51176        0.38501
H         -0.43928        1.67299       -1.15707
H          1.63132       -2.75053       -0.33249
H         -2.77654        0.75891        2.24989
H         -1.87163       -0.77396       -1.69721
H          5.34051       -0.48796       -0.10420
H         -5.22408        0.41764        1.82256
H         -4.30392       -1.12386       -2.12153
H          5.10835        1.68813        0.18069
H          5.18640       -2.74026       -0.42448
H         -6.41433       -0.89647       -1.24255
