5
NITRIC_ACID.gamout	Energy:    -280.7065286
N          1.80248        1.00323        0.29234
O          2.45442        0.00402        0.45132
O          2.13371        2.17500        0.25742
O          0.39755        0.75367        0.11513
H          0.03851        1.66464        0.00250
