7
NITROGEN_PENTOXIDE.gamout	Energy:    -485.0352172
O          1.73208        1.59818        0.00001
N          0.42304        0.77910       -0.05228
O         -0.48093        1.45689        0.34393
N          3.04108        0.77900        0.05231
O          3.94509        1.45675       -0.34385
O          0.49489       -0.32546       -0.50900
O          2.96915       -0.32559        0.50899
