3
NITROSYL_CHLORIDE.gamout	Energy:    -589.9078367
Cl        34.16768       10.11891        0.00000
N         32.42232        9.09471        0.00000
O         32.53608        7.95193        0.00000
