7
NITROMETHANE2.gamout	Energy:    -244.8471827
N          0.22453       -0.24789       -0.00981
O          0.77566       -0.89969        0.87546
O          0.78071        0.47705       -0.83292
C         -1.27544       -0.38753       -0.12607
H         -1.67946        0.54660       -0.55275
H         -1.46621       -1.23546       -0.81164
H         -1.68086       -0.60922        0.87621
