6
NITROGEN_TETROXIDE.gamout	Energy:    -409.9292430
N         -0.13988        1.32111       -0.00000
N          1.70098        1.12715       -0.00000
O         -0.47796        2.47168        0.00000
O         -0.71046        0.26629       -0.00000
O          2.03906       -0.02340        0.00000
O          2.27156        2.18197       -0.00000
