4
NITROGEN_TRIFLUORIDE.gamout	Energy:    -353.8190878
F          0.12512       29.92640        0.12448
N          1.20326       29.29219       -0.48817
F          1.19308       28.04145        0.12446
F          2.29171       29.90888        0.12418
