4
NITROUS_ACID.gamout	Energy:    -205.5645238
N          0.94497        0.12163        0.04076
O          0.34261       -0.50165       -1.12503
O          2.12158        0.08986       -0.01873
H         -0.61351       -0.39405       -0.92366
