4
NO3-1.gamout	Energy:    -280.1561106
N          0.14514        0.58207        0.00000
O         -0.01503       -0.67748        0.00000
O          1.31566        1.07307        0.00000
O         -0.86567        1.35044        0.00000
