15
O-CHLOROTOLUENE.gamout	Energy:    -730.8643224
C          7.26210        3.03396       -0.97397
C          6.34161        1.87854       -0.67036
C          6.83977        0.57585       -0.42419
C          4.93954        2.04167       -0.61705
Cl         8.57611        0.29270       -0.47615
C          5.99395       -0.50916       -0.13923
C          4.07628        0.97048       -0.33436
C          4.60485       -0.30873       -0.09444
H          7.97983        3.20456       -0.14380
H          7.87158        2.83593       -1.88110
H          6.68810        3.96735       -1.13636
H          4.52164        3.04460       -0.80422
H          6.43226       -1.50116        0.04439
H          2.98825        1.13690       -0.30145
H          3.93927       -1.15737        0.12846
