14
O-CHLORONITROBENZENE.gamout	Energy:    -895.9396426
O          6.69243        4.09069       -0.74190
N          7.16823        2.98165       -1.00167
O          8.25790        2.77435       -1.53200
C          6.32398        1.80295       -0.67072
C          6.86597        0.55408       -0.28468
C          4.93201        1.97924       -0.76783
Cl         8.56894        0.27840       -0.06032
C          5.98263       -0.50968       -0.01155
C          4.06538        0.90966       -0.51397
C          4.59613       -0.33730       -0.13598
H          4.56077        2.97504       -1.04921
H          6.40669       -1.47423        0.30377
H          2.97795        1.05045       -0.60665
H          3.92680       -1.18622        0.07316
