12
O-DIFLUOROBENZENE.gamout	Energy:    -430.3937267
C          6.33892        1.87806       -0.67551
C          6.88275        0.62412       -0.34055
C          4.94504        2.05359       -0.72451
C          4.08596        0.97639       -0.43882
C          4.62865       -0.27035       -0.10585
C          6.02647       -0.44638       -0.05675
F          3.82729       -1.31354        0.17078
F          6.52185       -1.65376        0.26577
H          7.01244        2.71974       -0.89871
H          7.96943        0.45563       -0.29390
H          4.51803        3.03386       -0.98633
H          2.99088        1.08293       -0.46868
