16
O-DINITROBENZENE.gamout	Energy:    -640.8068801
C          6.29290        1.91004       -0.65183
C          6.82653        0.65037       -0.34656
C          4.89972        2.08448       -0.69793
C          4.04399        0.99893       -0.44233
C          4.57874       -0.26081       -0.12574
C          5.96878       -0.43237       -0.06940
N          6.47780       -1.74975        0.39850
N          8.30247        0.48871       -0.44153
O          8.71274       -0.54246       -0.96932
O          8.98648        1.42692       -0.03425
O          5.87280       -2.74560        0.00318
O          7.42286       -1.73005        1.18377
H          6.98846        2.73540       -0.86230
H          4.48438        3.07370       -0.94354
H          2.95201        1.13125       -0.48023
H          3.93615       -1.12538        0.09465
