16
O-NITROANILINE.gamout	Energy:    -491.7815662
C          6.29760        1.83116       -0.66951
C          6.88587        0.55037       -0.38315
C          4.89644        2.01042       -0.68276
N          7.12113        3.00181       -0.96431
C          5.97336       -0.51706       -0.11489
N          8.22621        0.33726       -0.36310
C          4.03888        0.94594       -0.41592
C          4.59490       -0.32488       -0.13156
O          6.56209        4.07607       -1.20118
O          8.36819        2.87206       -0.96530
H          8.59437       -0.58705       -0.14767
H          8.82659        1.14645       -0.56681
H          4.52508        3.01897       -0.91054
H          6.39098       -1.51296        0.10501
H          2.94884        1.09233       -0.42742
H          3.93286       -1.17993        0.07948
