16
O-TOLUNITRILE.gamout	Energy:    -363.5392567
N          7.87211        3.91692       -1.00712
C          7.16448        2.99550       -0.82765
C          6.30588        1.86364       -0.60686
C          6.87842        0.58286       -0.34669
C          4.90093        2.03722       -0.65084
C          8.37570        0.39817       -0.30068
C          5.99577       -0.49427       -0.13636
C          4.05083        0.94418       -0.43732
C          4.60145       -0.32318       -0.17969
H          4.49042        3.03772       -0.85380
H          8.84856        0.68692       -1.26324
H          8.83798        1.03702        0.48127
H          8.64359       -0.65493       -0.08804
H          6.41582       -1.49275        0.06616
H          2.95921        1.08182       -0.47200
H          3.94069       -1.18807       -0.01063
