40
OCTYL-4-HYDROXYBENZOATE.gamout	Energy:    -809.9510262
O         -1.27889       -0.21927        0.09401
O         -1.45773        0.92517       -1.87158
O         -7.00376        2.29770        1.09149
C          3.68809        0.57998        0.24208
C          5.08535        0.00674       -0.03860
C          2.53813       -0.34941       -0.17689
C          6.23463        0.93952        0.37290
C          1.14501        0.22558        0.12376
C          7.63454        0.36869        0.09556
C          0.01831       -0.71776       -0.30017
C          8.77369        1.31121        0.50401
C         -1.92166        0.60081       -0.78744
C         -3.25081        1.03701       -0.27050
C         -3.75151        0.63415        0.99053
C         -4.04007        1.88412       -1.07916
C         -5.00598        1.06270        1.43330
C         -5.29725        2.31830       -0.64419
C         -5.78958        1.90909        0.61625
H          3.59695        0.81331        1.32813
H          3.57668        1.55622       -0.28359
H          5.17455       -0.22837       -1.12464
H          5.19579       -0.96957        0.48821
H          2.65309       -1.33160        0.33803
H          2.62294       -0.56867       -1.26607
H          6.14480        1.18111        1.45771
H          6.12387        1.91338       -0.15863
H          1.04994        0.43695        1.21208
H          1.01381        1.19441       -0.40528
H          7.74362       -0.60397        0.62774
H          7.71946        0.12637       -0.98848
H          0.02827       -0.87077       -1.39964
H          0.10992       -1.70067        0.20671
H          8.73964        1.53986        1.59093
H          8.70843        2.27980       -0.03677
H          9.76951        0.87294        0.28536
H         -3.14014       -0.02376        1.62472
H         -3.64365        2.19383       -2.05823
H         -5.40426        0.75397        2.41147
H         -5.90867        2.97964       -1.28219
H         -7.43193        2.87386        0.42904
