3
OXYGEN_FLUORIDE.gamout	Energy:    -274.4556335
F         34.02876        9.92478        0.00000
O         32.72011        9.37148        0.00000
F         32.91813        7.96458        0.00000
