5
OZONE.gamout	Energy:    -226.5283466
O          0.13943        0.36939        0.39661
O          1.23682        1.21333       -0.00000
O          2.33405        0.36920       -0.39661
H         -0.25490        0.14675       -0.47832
H          2.72837        0.14651        0.47831
