19
P-ETHYLPHENOL.gamout	Energy:    -385.8150752
C          1.02035        0.96700        1.09353
C          1.71068        2.09753        1.88210
C          3.22606        2.02873        1.83561
C          3.96059        2.72608        0.85356
C          3.95410        1.23250        2.74933
C          5.36045        2.63598        0.77998
C          5.35053        1.12999        2.69091
C          6.06717        1.83410        1.70001
O          7.42812        1.70747        1.68320
H         -0.08540        1.05126        1.15234
H          1.30780        0.99167        0.02153
H          1.30697       -0.03015        1.48881
H          1.37638        3.08025        1.48317
H          1.37128        2.06237        2.94085
H          3.42693        3.36118        0.12660
H          3.41188        0.67917        3.53475
H          5.91102        3.19663        0.00439
H          5.91007        0.51195        3.40957
H          7.77900        2.25006        0.95147
