18
P-NITROANISOLE.gamout	Energy:    -550.8943987
C          6.41406        1.74849       -0.90093
C          6.90447        0.50761       -0.47116
C          5.01901        1.99421       -0.89168
C          6.00803       -0.47853       -0.03502
C          4.61869       -0.24929       -0.01897
N          6.53066       -1.78308        0.41702
C          4.12797        0.98333       -0.44643
O          4.44201        3.15554       -1.28603
C          5.27031        4.21909       -1.74466
O          5.71013       -2.62550        0.79694
O          7.75480       -1.95135        0.38762
H          7.12283        2.51631       -1.24038
H          7.98089        0.28611       -0.46673
H          3.95096       -1.04876        0.33114
H          3.04935        1.19992       -0.44856
H          4.58736        5.04806       -2.00829
H          5.97136        4.56298       -0.95193
H          5.85323        3.92735       -2.64663
