16
P-PHENYLENEDIAMINE.gamout	Energy:    -342.7138551
C          6.35688        1.88574       -0.69636
C          6.86805        0.61274       -0.34725
C          4.94933        2.03267       -0.72837
N          7.21032        2.93825       -1.06824
C          6.01557       -0.45837       -0.04413
C          4.60802       -0.31145       -0.07614
C          4.09686        0.96156       -0.42525
N          3.75457       -1.36396        0.29574
H          7.95953        0.45623       -0.31813
H          4.51205        3.00722       -1.00335
H          6.81455        3.87211       -0.93202
H          8.14993        2.88268       -0.66654
H          6.45285       -1.43293        0.23085
H          3.00538        1.11807       -0.45437
H          2.81496       -1.30837       -0.10595
H          4.15034       -2.29781        0.15952
