37
P-TERT-OCTYLPHENOL.gamout	Energy:    -621.4962333
C         10.04157        1.65266       -2.56902
C          8.55677        1.75594       -2.97911
C          8.51290        2.17869       -4.46674
C          7.89738        0.37159       -2.84740
C          7.80922        2.86906       -2.17356
C          7.32769        2.71117       -0.68908
C          8.47828        2.32754        0.26079
C          6.83547        4.11435       -0.23234
C          6.12538        1.74948       -0.56130
O          2.73006       -0.73546       -0.09931
C          3.80680        0.08718       -0.27665
C          6.08207        0.68090        0.36093
C          4.95867        1.95987       -1.32982
C          4.95358       -0.14049        0.50479
C          3.82032        1.15176       -1.19937
H         10.17239        1.27203       -1.53835
H         10.54372        2.64087       -2.63247
H         10.58080        0.95779       -3.24658
H          7.46996        2.20991       -4.84661
H          8.95884        3.18464       -4.61699
H          9.07924        1.46200       -5.09830
H          6.82666        0.39628       -3.13522
H          7.94553       -0.01294       -1.80951
H          8.41162       -0.36233       -3.50372
H          8.45772        3.77292       -2.20236
H          6.91216        3.14971       -2.76648
H          8.15765        2.41283        1.31962
H          8.84394        1.29374        0.10681
H          9.33687        3.01506        0.12020
H          6.42215        4.06887        0.79665
H          6.04001        4.50757       -0.89653
H          7.67106        4.84608       -0.23564
H          2.02206       -0.45141       -0.70811
H          6.95172        0.46520        0.99758
H          4.92075        2.78667       -2.05615
H          4.94608       -0.96977        1.22671
H          2.93027        1.35362       -1.81896
