19
P-TOLUENESULFONIC_ACID.gamout	Energy:    -894.9178561
S          2.13713        0.18023        0.04378
O          2.51816       -0.40448       -1.47539
O          2.56611        1.59441        0.08816
O          2.63568       -0.84469        0.96897
C          0.34154        0.11928        0.03238
C         -2.46962        0.00873        0.00890
C         -0.39191        1.30176       -0.14296
C         -0.29991       -1.11702        0.20921
C         -1.79343        1.23696       -0.14866
C         -1.69967       -1.16149        0.19277
C         -3.97624       -0.05722       -0.03541
H          0.13990        2.25787       -0.25096
H          0.29668       -2.02593        0.37229
H         -2.37609        2.16316       -0.27729
H         -2.21070       -2.12766        0.33245
H         -4.36645       -0.90027        0.56856
H         -4.43847        0.87920        0.33518
H         -4.33480       -0.20842       -1.07782
H          2.55312        0.37907       -2.06664
