17
P-TOLUALDEHYDE.gamout	Energy:    -384.6085347
O          2.81754        0.76732        6.94951
C          1.93207        0.54911        6.13641
C          1.93638        1.02148        4.72816
C          0.86138        0.71325        3.86867
C          3.01958        1.78437        4.23271
C          0.86670        1.15848        2.53821
C          3.01936        2.22505        2.90691
C          1.94278        1.92207        2.03434
C          1.95398        2.41741        0.60683
H          1.01391       -0.05290        6.42054
H          0.01509        0.11676        4.25053
H          3.85159        2.01467        4.91715
H          0.02193        0.91060        1.87470
H          3.86864        2.81812        2.52841
H          2.89877        2.14293        0.09183
H          1.11089        2.00193        0.02025
H          1.87751        3.52583        0.56960
