20
PARACETAMOL.gamout	Energy:    -515.1191802
C          0.86871        0.20128        0.38481
C          0.67682       -1.20109        0.35795
C         -0.60547       -1.75809        0.30313
C         -1.73881       -0.91862        0.27396
O         -2.97201       -1.50760        0.22036
C         -1.55248        0.47826        0.30120
C         -0.26782        1.04150        0.35593
H          1.55236       -1.87214        0.37971
H         -0.74781       -2.84893        0.28195
H         -3.64812       -0.80386        0.20569
H         -2.43054        1.14697        0.27894
H         -0.12441        2.12875        0.37645
N          2.19475        0.69003        0.43762
C          2.64226        2.00220        0.46916
H          2.91610       -0.03425        0.45286
O          1.89803        2.98041        0.45601
C          4.16637        2.12762        0.52126
H          4.64140        1.65858       -0.36652
H          4.58387        1.63756        1.42652
H          4.42342        3.20154        0.54255
