41
PENICILLIN_G.gamout	Energy:   -1428.3353770
S         -1.12236        1.55586       -0.03300
O         -2.07834       -2.15970       -1.59211
O         -5.87536        0.56864       -0.19547
O         -4.98179       -0.51987        1.58416
O          2.09056       -2.23779        0.83962
N         -2.48663       -0.66356        0.22529
N          0.74333       -1.01458       -0.55003
C         -1.28019       -0.07808        0.81898
C         -2.99472        1.72509       -0.09910
C         -3.52551        0.23507       -0.23809
C         -0.44890       -1.25829        0.19415
C         -1.76208       -1.54423       -0.59962
C         -3.47538        2.40526        1.19192
C         -3.37955        2.55559       -1.32639
C         -4.84285        0.02777        0.51218
C          1.95937       -1.54940       -0.16767
C          3.12688       -1.21540       -1.10767
C          4.15530       -0.30493       -0.46374
C          4.22781        1.05496       -0.82274
C          5.03467       -0.79256        0.52350
C          5.16332        1.91028       -0.22175
C          5.96816        0.06164        1.12723
C          6.03785        1.41419        0.75660
H         -1.27828        0.02759        1.92310
H         -3.71493        0.01291       -1.31003
H         -0.20865       -2.03363        0.95292
H         -3.25201        1.79549        2.08876
H         -2.97413        3.38474        1.30637
H         -4.57161        2.58190        1.15866
H         -3.02955        3.60315       -1.22879
H         -2.95037        2.12322       -2.25121
H         -4.48428        2.57212       -1.42404
H          0.68305       -0.44319       -1.39488
H         -6.68246        0.42166        0.34761
H          3.58688       -2.18932       -1.37445
H          2.75782       -0.75923       -2.04849
H          3.54043        1.44722       -1.58877
H          4.97600       -1.84875        0.82535
H          5.20836        2.96928       -0.51897
H          6.65112       -0.33252        1.89457
H          6.77369        2.08131        1.23008
