50
PERFLUOROHEXADECANE.gamout	Energy:   -4001.1984679
F          1.24187        0.61181        1.10585
F          1.24187        0.61181       -1.10585
F         -1.24187       -0.61181       -1.10585
F         -1.24187       -0.61181        1.10585
F          0.91735       -2.13845       -1.10585
F          0.91735       -2.13845        1.10585
F         -0.91735        2.13845        1.10585
F         -0.91735        2.13845       -1.10585
F          3.40199       -0.91641       -1.10585
F          3.40199       -0.91641        1.10585
F         -3.40199        0.91641        1.10585
F         -3.40199        0.91641       -1.10585
F          3.07490       -3.66629        1.10580
F          3.07490       -3.66629       -1.10580
F         -3.07490        3.66629       -1.10580
F         -3.07490        3.66629        1.10580
F          5.56296       -2.45034        1.10591
F          5.56296       -2.45034       -1.10591
F         -5.56296        2.45034       -1.10591
F         -5.56296        2.45034        1.10591
F          5.23228       -5.20016       -1.10593
F          5.23228       -5.20016        1.10593
F         -5.23228        5.20016        1.10593
F         -5.23228        5.20016       -1.10593
F          7.73031       -4.00873       -1.10566
F          7.73031       -4.00873        1.10566
F         -7.73031        4.00873        1.10566
F         -7.73031        4.00873       -1.10566
F          9.17014       -6.01058        0.00000
F          7.43611       -6.76291        1.09413
F          7.43611       -6.76291       -1.09413
F         -9.17014        6.01057        0.00000
F         -7.43611        6.76291       -1.09413
F         -7.43611        6.76291        1.09413
C          0.78944       -0.02852       -0.00000
C         -0.78944        0.02852       -0.00000
C          1.36983       -1.49809       -0.00000
C         -1.36983        1.49809       -0.00000
C          2.94859       -1.55610       -0.00000
C         -2.94859        1.55611        0.00000
C          3.52746       -3.02572       -0.00000
C         -3.52746        3.02572       -0.00000
C          5.10527       -3.08707        0.00000
C         -5.10527        3.08707       -0.00000
C          5.68084       -4.55419        0.00000
C         -5.68085        4.55419        0.00000
C          7.24995       -4.62906        0.00000
C         -7.24995        4.62906        0.00000
C          7.82833       -6.09073        0.00000
C         -7.82833        6.09073        0.00000
