32
PERYLENE.gamout	Energy:    -768.8518763
C         -1.48548       -2.44132       -0.00096
C         -2.89762       -2.43792       -0.00041
C         -3.59604       -1.23913        0.00021
C         -2.89436       -0.00006        0.00043
C         -3.59614        1.23887        0.00068
C         -2.89857        2.43802        0.00011
C         -1.48640        2.44129       -0.00032
C         -0.74033        1.25300       -0.00017
C          0.73992        1.25291       -0.00011
C          1.48646        2.44074       -0.00026
C          2.89850        2.43672       -0.00017
C          3.59648        1.23800       -0.00006
C          2.89382       -0.00020        0.00037
C          3.59581       -1.23842        0.00017
C          2.89790       -2.43702       -0.00003
C          1.48609       -2.44057        0.00030
C          0.74022       -1.25253        0.00078
C         -0.74024       -1.25271       -0.00085
C         -1.44860        0.00009        0.00008
C          1.44833        0.00015        0.00035
H         -0.97110       -3.41198        0.00179
H         -3.43830       -3.39583       -0.00069
H         -4.69674       -1.23059        0.00026
H         -4.69686        1.22989        0.00096
H         -3.43949        3.39574       -0.00035
H         -0.97213        3.41203       -0.00104
H          0.97285        3.41185       -0.00064
H          3.43921        3.39458       -0.00052
H          4.69712        1.22896       -0.00056
H          4.69650       -1.22963       -0.00000
H          3.43851       -3.39487       -0.00073
H          0.97225       -3.41144       -0.00020
