7
PF6-1.gamout	Energy:    -940.1132259
P          1.80809       -1.44283        0.16141
F          3.30734       -1.45820        0.87274
F          1.19907       -0.61789        1.46639
F          1.44306       -2.88115        0.90357
F          2.41903       -2.26877       -1.14236
F          2.17363       -0.00397       -0.58044
F          0.30768       -1.42719       -0.54952
