13
PHENOL.gamout	Energy:    -307.2466697
O          0.35924        2.39190        0.07642
C          1.71961        2.27091        0.06102
C          2.48391        3.45808        0.07487
C          2.37380        1.02046        0.03380
C          3.88438        3.38585        0.06217
C          3.77793        0.96194        0.02115
C          4.54225        2.14123        0.03535
H         -0.03158        1.49752        0.05949
H          1.95913        4.42530        0.09540
H          1.77820        0.09095        0.02259
H          4.47156        4.31825        0.07340
H          4.27541       -0.02093       -0.00033
H          5.64189        2.09235        0.02658
