8
PHOSPHORIC_ACID.gamout	Energy:    -643.8273891
P          0.63975        2.54032        0.48090
O          0.09196        3.19903       -0.72280
O          0.67909        0.90384        0.35855
O         -0.22244        2.85970        1.84057
O          2.17984        2.99768        0.81914
H          1.03518        0.42869        1.13371
H          0.10590        2.44367        2.66081
H          2.57935        2.58366        1.60795
