18
PHTHALIC_ACID.gamout	Energy:    -608.9468282
C         -1.11539       -0.22040        0.27573
C         -0.43073        1.00078        0.31589
C         -0.44302       -1.36949       -0.15839
C          0.90043       -1.27326       -0.54357
C          1.61804       -0.05144       -0.51389
C          0.92832        1.12798       -0.06829
C          3.06385       -0.13061       -0.96695
C          1.50949        2.52490        0.03679
O          0.56802        3.41293        0.50261
O          2.63091        2.90448       -0.22820
O          3.88792        0.75673       -1.03640
O          3.39387       -1.41615       -1.32836
H         -2.17161       -0.26722        0.58448
H         -0.95658        1.90140        0.65596
H         -0.95571       -2.34326       -0.20060
H          1.42873       -2.17225       -0.88404
H          1.04653        4.27000        0.52984
H          4.33519       -1.34941       -1.59990
