16
PIPERAZINE.gamout	Energy:    -267.7182081
C         -2.16182       -0.17322       -0.08792
C         -1.58259       -1.56599       -0.33820
C          0.07632        0.21330        0.89165
C          0.52743       -0.28558       -0.49465
N         -0.24585       -1.45655       -0.94548
H         -2.25874       -2.13074       -1.01910
H         -1.58719       -2.11668        0.63879
H          0.28419       -2.31738       -0.77710
H          1.60850       -0.54278       -0.48799
H          0.41285        0.54957       -1.22741
N         -1.36328        0.53041        0.92928
H          0.65657        1.11087        1.19580
H          0.31075       -0.57668        1.64563
H         -1.50575        1.54201        0.84544
H         -3.21405       -0.26979        0.26259
H         -2.20339        0.35973       -1.07357
