11
PROPIONIC_ACID.gamout	Energy:    -268.2047365
C          0.48666        0.10144       -0.00030
C         -0.73752       -0.79901       -0.00082
C         -2.05596       -0.02686        0.00109
O          0.47798        1.31856       -0.00086
O          1.63943       -0.62483        0.00073
H         -0.64971       -1.47150       -0.88309
H         -0.64867       -1.47418        0.87927
H         -2.13649        0.62478        0.89412
H         -2.13753        0.62744       -0.88989
H         -2.91837       -0.72375        0.00057
H          2.36574        0.03784        0.00023
