14
PROPYL_FORMATE.gamout	Energy:    -307.4596941
C          1.55766       -4.91312       -5.90144
O          1.13501       -3.78666       -5.97808
O          2.88014       -5.20574       -5.92964
C          3.25688       -6.59714       -5.82711
C          4.77796       -6.68040       -5.87831
H          2.80045       -7.17280       -6.66542
H          2.86874       -7.02217       -4.87272
C          5.29803       -8.11888       -5.78126
H          5.18814       -6.05921       -5.05284
H          5.12005       -6.20533       -6.82330
H          4.99301       -8.60579       -4.83026
H          6.40561       -8.14188       -5.82305
H          4.92243       -8.74952       -6.61522
H          0.90743       -5.83123       -5.79960
