19
PROPIONIC_ANHYDRIDE.gamout	Energy:    -460.0209657
O          4.49637        1.31866        1.57818
C          3.24571        1.95655        1.53849
C          5.68712        2.04775        1.73252
C          0.75475        1.55166        1.85493
C          2.17020        0.99926        2.01277
O          3.08985        3.08120        1.13468
C          8.20138        1.91804        1.37075
C          6.83763        1.28066        1.11142
O          5.74780        3.09879        2.31891
H          0.62725        2.49581        2.42103
H          0.52641        1.77294        0.79296
H          0.00619        0.82230        2.22356
H          2.31126        0.04183        1.46453
H          2.40544        0.75519        3.07340
H          8.24182        2.95282        0.97637
H          8.41963        1.97197        2.45637
H          9.00668        1.33044        0.88654
H          6.78170        0.23574        1.48790
H          6.61656        1.20150        0.02289
