23
PROPYL_BUTANOATE.gamout	Energy:    -425.3035241
O          1.11820        0.03970       -0.02378
C          0.45261       -0.97287       -0.65316
C          1.13773       -2.14720       -1.38441
O         -0.76125       -0.93645       -0.62945
C          2.53981        0.21758        0.08294
C          2.65028       -2.38316       -1.52879
C          2.77916        1.49557        0.88462
C          2.93339       -3.66402       -2.32825
C          4.26864        1.80293        1.07538
H          0.67671       -2.11628       -2.39682
H          0.67397       -3.04267       -0.91353
H          3.00045        0.30463       -0.92568
H          3.00522       -0.65164        0.59764
H          3.13195       -2.46782       -0.53169
H          3.13517       -1.52415       -2.03914
H          2.27166        1.38814        1.86763
H          2.26892        2.33474        0.36402
H          2.49497       -4.55572       -1.83132
H          4.02322       -3.84100       -2.43597
H          2.49883       -3.60879       -3.34915
H          4.78991        0.98645        1.61971
H          4.41084        2.73374        1.66098
H          4.78892        1.94042        0.10333
