9
PROPYLENE.gamout	Energy:    -117.8136755
C          0.66412        0.99269        0.86500
C          1.76275        1.96785        1.18399
C          3.08001        1.69248        1.18706
H         -0.04847        0.89380        1.71377
H          0.06312        1.33549       -0.00628
H          1.06206       -0.01632        0.63187
H          1.43924        2.99677        1.43468
H          3.83025        2.46185        1.43103
H          3.45891        0.68396        0.94471
