10
PROPANOATE-1.gamout	Energy:    -267.6262151
O          2.03719       -1.73556        1.48645
C          1.36406       -2.08236        2.49988
O          0.35960       -2.83772        2.57931
C          1.89289       -1.51995        3.89630
C          2.73283       -0.24586        3.77262
H          1.01760       -1.39064        4.57299
H          2.50611       -2.33478        4.35275
H          3.32467        0.00215        4.68704
H          3.41279       -0.38119        2.90403
H          2.09657        0.63742        3.53751
