11
PYRIDINE.gamout	Energy:    -248.1021455
C          3.12541        3.38945        0.18910
C          3.84460        2.18301        0.16231
C          1.72278        3.33539        0.13079
C          3.12421        0.97713        0.07867
C          1.10534        2.07364        0.04821
N          1.78174        0.91114        0.02219
H          3.64933        4.35677        0.25415
H          4.94521        2.17397        0.20544
H          1.11511        4.25389        0.14863
H          3.66189        0.01063        0.05588
H          0.00272        1.99847        0.00063
