16
SALICYLIC_ACID.gamout	Energy:    -495.6887818
C         -1.38884       -0.06581        0.01682
C         -0.73354        1.16959       -0.04753
C         -0.62411       -1.24718        0.03934
C          0.77370       -1.18113       -0.00271
C          1.44468        0.06256       -0.06738
O          2.79692        0.12256       -0.10038
C          0.67857        1.26746       -0.09069
C          1.34030        2.60358       -0.16255
O          2.53793        2.82031       -0.23567
O          0.42920        3.62835       -0.13889
H         -2.48792       -0.10989        0.05093
H         -1.31403        2.10276       -0.06596
H         -1.11807       -2.23061        0.09035
H          1.37384       -2.10759        0.01647
H          3.14013       -0.79238       -0.07608
H          0.97758        4.44119       -0.19239
