3
SCN-1.gamout	Energy:    -490.9466352
C         -1.57121        0.94035       -0.00000
N         -0.37440        0.91267       -0.00000
S         -3.23700        0.97760        0.00000
