15
SEC-BUTANOL.gamout	Energy:    -233.4901461
C         -0.47385        0.03006       -0.33497
C         -1.75887        0.79260        0.00979
C          0.77697        0.68768        0.26217
C          2.08318       -0.02296       -0.10515
O         -0.52156       -1.30845        0.17089
H         -0.35600        0.01469       -1.45082
H         -1.89914        0.83398        1.11038
H         -1.73760        1.83227       -0.38017
H         -2.65043        0.29381       -0.42874
H          0.80652        1.74867       -0.07080
H          0.65285        0.70938        1.36842
H          2.05651       -1.08040        0.22584
H          2.25241       -0.01969       -1.20356
H          2.95896        0.46567        0.36980
H         -1.28171       -1.75161       -0.24928
