14
SERINE.gamout	Energy:    -398.6624846
C          2.99201        1.91656       -0.06269
C          1.66075        1.24034       -0.42256
C          0.49822        1.98712        0.23679
N          1.65656       -0.18761       -0.08090
O          3.15720        2.81766        0.74138
O          4.03204        1.33373       -0.72675
O         -0.71447        1.51856       -0.32121
H          0.65439        3.08085        0.07297
H          0.55753        1.82824        1.34426
H          2.44648       -0.65480       -0.54579
H          1.81148       -0.29810        0.93202
H          4.84133        1.78515       -0.39778
H         -1.44030        1.98983        0.12581
H          1.52938        1.32125       -1.52578
