5
SILANE.gamout	Energy:    -291.8109512
Si        -0.45181        0.96960       -0.00150
H          1.04496        0.84401       -0.00263
H         -0.89170        1.72549       -1.22265
H         -0.89126        1.70860        1.23010
H         -1.06913       -0.39968       -0.01081
