68
SIMVASTATIN.gamout	Energy:   -1350.6811537
O          2.41161       -0.67561        0.11839
O         -3.85223        0.57396        0.75924
O         -5.45377       -2.37444        0.40802
O          1.93990       -2.48560        1.40951
O         -5.36861        1.32976        2.19794
C          1.36403        1.47916        0.44382
C          0.21717        1.23918       -0.58606
C          1.89696        0.22209        1.14858
C         -0.18772        2.57147       -1.28112
C          2.53744        2.25520       -0.15268
C         -0.99023        0.49391        0.03542
C          2.98358        0.57483        2.17169
C          4.18129        1.36274        1.59415
C          3.78641        2.17252        0.38572
C         -2.17811        0.22923       -0.91607
C          1.02786        3.27056       -1.83248
C          2.26611        3.10743       -1.30497
C         -1.00160        3.53998       -0.39218
C         -3.40503       -0.38863       -0.23572
C          5.40726        0.46967        1.31006
C         -4.52516       -0.76805       -1.20524
C          2.36404       -2.01070        0.36778
C         -5.75536       -1.25743       -0.42978
C          2.86047       -2.83061       -0.83289
C         -6.22190       -0.13554        0.49020
C         -5.12917        0.62231        1.24359
C          1.73052       -2.83133       -1.90507
C          3.17970       -4.25620       -0.36264
C          4.11993       -2.18809       -1.43936
C          0.40511       -3.48487       -1.49407
H          0.92833        2.10073        1.26398
H          0.64536        0.59553       -1.38804
H          1.09115       -0.31961        1.67877
H         -0.83616        2.30615       -2.14535
H         -1.36582        1.05527        0.91890
H         -0.64882       -0.48797        0.42883
H          2.48107        1.17405        2.96014
H          3.32551       -0.35321        2.66883
H          4.50584        2.09144        2.37652
H          4.59378        2.75725       -0.08821
H         -2.51246        1.17126       -1.40351
H         -1.86461       -0.45059       -1.74029
H          0.88683        3.96222       -2.67878
H          3.11837        3.65645       -1.73888
H         -1.94581        3.08322       -0.03478
H         -1.26188        4.45507       -0.96089
H         -0.41832        3.86310        0.49481
H         -3.11839       -1.30698        0.32710
H          5.73536       -0.04646        2.23513
H          5.17878       -0.30060        0.54689
H          6.26124        1.07167        0.93702
H         -4.15157       -1.55683       -1.89225
H         -4.80504        0.10112       -1.84165
H         -6.57615       -1.51228       -1.14210
H         -6.77142        0.63063       -0.09888
H         -6.93340       -0.52722        1.24204
H          1.55263       -1.77877       -2.21276
H          2.13841       -3.34971       -2.80050
H          4.06724       -4.25831        0.30128
H          3.40151       -4.90746       -1.23208
H          2.34141       -4.69012        0.21186
H          4.94855       -2.16237       -0.70302
H          3.92982       -1.15179       -1.77638
H          4.47108       -2.78241       -2.30669
H         -5.10017       -3.08476       -0.16003
H          0.52232       -4.56736       -1.28202
H         -0.02614       -3.01502       -0.58542
H         -0.34227       -3.38710       -2.30740
