3
SULFUR_DIOXIDE.gamout	Energy:    -548.4038971
S          0.91288       -0.08395        0.00000
O          2.17365        0.70054        0.00000
O         -0.38240        0.64211        0.00000
