9
TCB-1.gamout	Energy:    -396.0782043
N          2.78174        0.00120       -0.00009
N         -0.92990        2.61902        0.00010
N         -0.92868       -1.30892        2.27084
N         -0.92854       -1.30935       -2.27069
C          1.60748       -0.00255        0.00001
C         -0.53356        1.51366        0.00011
C         -0.53480       -0.75624        1.31255
C         -0.53476       -0.75586       -1.31282
B          0.00111       -0.00107       -0.00002
