43
TEBUCONAZOLE.gamout	Energy:   -1321.8771155
Cl         6.12970        1.46613       -1.64049
O          1.08652       -4.48110        2.48536
N         -0.53093       -2.17042        3.00153
N         -0.31515       -2.56095        4.28085
N         -0.32572       -0.28027        4.13844
C          0.47421       -3.84490        1.35727
C          0.00628       -4.96782        0.32124
C          1.52111       -2.82150        0.82847
C         -0.77801       -3.13775        1.94377
C         -1.01775       -4.46870       -0.71971
C          1.22664       -5.53789       -0.42975
C         -0.64458       -6.13074        1.10054
C          1.17711       -1.81398       -0.29286
C          2.37681       -0.96166       -0.65555
C         -0.54487       -0.80393        2.93733
C          2.74081        0.15852        0.11816
C          3.19730       -1.30483       -1.74815
C         -0.19173       -1.39527        4.92001
C          3.88719        0.90970       -0.17813
C          4.34846       -0.56736       -2.06045
C          4.69032        0.53866       -1.26781
H          2.42058       -3.39279        0.51182
H          1.84178       -2.24294        1.72076
H         -1.32994       -2.60697        1.14668
H         -1.44754       -3.90766        2.37052
H         -1.25518       -5.29165       -1.42588
H         -1.97731       -4.16318       -0.25699
H         -0.64515       -3.62255       -1.32875
H          1.68244       -4.80192       -1.12150
H          0.91656       -6.41390       -1.03357
H          2.01332       -5.89170        0.26959
H          0.03567       -6.50581        1.88638
H         -1.58954       -5.82921        1.59645
H         -0.89043       -6.96344        0.40970
H          0.33906       -1.16007        0.03117
H          0.82746       -2.34264       -1.20120
H          2.00503       -4.70318        2.24117
H         -0.73809       -0.25048        2.00907
H          2.11899        0.45790        0.97606
H          2.92984       -2.16925       -2.37614
H         -0.00712       -1.35505        6.00180
H          4.16304        1.78275        0.42874
H          4.98059       -0.84212       -2.91582
