18
TEREPHTALIC_ACID.gamout	Energy:    -608.9702300
O          0.80688        3.01708        0.11921
C          1.47993        1.88269       -0.21753
O          0.91331        0.87538       -0.60923
C          2.96265        2.01754       -0.05263
C          3.56615        3.21021        0.40565
C          3.76501        0.90057       -0.37222
C          4.95780        3.28006        0.54120
C          5.15665        0.97043       -0.23670
C          5.76015        2.16310        0.22158
C          7.24287        2.29792        0.38655
O          7.91591        1.16348        0.04995
O          7.80949        3.30525        0.77821
H         -0.14229        2.80992       -0.02796
H          2.93587        4.07646        0.65276
H          3.26924       -0.01573       -0.72689
H          5.45357        4.19638        0.89581
H          5.78694        0.10417       -0.48381
H          8.86508        1.37064        0.19712
