27
TERT-BUTYL_ISOBUTYL_ETHER.gamout	Energy:    -390.6156928
O         -0.29364        0.27668       -0.37648
C         -1.65120       -0.03478        0.01999
C          2.09502        0.03440       -0.39381
C          0.75785       -0.56036        0.07583
C         -1.84625        0.20637        1.53150
C         -2.49691        0.96071       -0.78987
C         -2.02604       -1.48228       -0.35501
C          2.33734        1.42398        0.21465
C          3.24787       -0.93615       -0.09263
H          2.00813        0.15032       -1.49890
H          0.65754       -1.59697       -0.33032
H          0.76440       -0.64966        1.19269
H         -1.56722        1.24642        1.79709
H         -2.90673        0.04626        1.81651
H         -1.23266       -0.48541        2.14496
H         -2.34645        0.79476       -1.87596
H         -2.19052        2.00042       -0.55596
H         -3.57600        0.84962       -0.55923
H         -1.46609       -2.22637        0.24787
H         -3.10661       -1.66158       -0.17799
H         -1.81643       -1.67412       -1.42784
H          3.26149        1.88801       -0.18943
H          2.44966        1.35952        1.31982
H          1.48432        2.09754       -0.00063
H          4.21379       -0.53653       -0.46596
H          3.08943       -1.92810       -0.56694
H          3.36051       -1.09996        1.00170
