15
TERT-BUTANOL.gamout	Energy:    -233.4935353
C          0.76930        1.16216        2.66693
C          1.72884        1.76838        1.62238
C          2.80966        2.61934        2.30572
C          2.36770        0.66245        0.75776
O          1.00785        2.68589        0.77974
H         -0.02013        0.55649        2.17047
H          1.29842        0.49806        3.38228
H          0.27129        1.97091        3.23964
H          3.43116        2.00433        2.98714
H          3.46868        3.08324        1.54407
H          2.33716        3.43403        2.89096
H          3.01705        1.11426       -0.01962
H          2.97922       -0.03674        1.36582
H          1.58423        0.06173        0.24602
H          0.31297        2.16948        0.32787
