16
TERT-BUTYLAMINE.gamout	Energy:    -213.6388207
C          2.00010        3.01428        0.68725
C          2.15164        2.04725        1.87963
C          0.93399        2.18872        2.82638
C          3.45057        2.35920        2.64860
N          2.28475        0.68253        1.32375
H          2.86200        2.90988       -0.00213
H          1.93912        4.06912        1.02617
H          1.07414        2.79225        0.11365
H          0.83886        3.21634        3.23972
H         -0.01147        1.95451        2.29078
H          1.01645        1.48914        3.68674
H          4.33043        2.24954        1.98300
H          3.43950        3.39008        3.05903
H          3.58320        1.66142        3.50433
H          2.35692        0.00783        2.10042
H          1.41403        0.43231        0.83110
