18
TERT-BUTYLFORMAMIDE.gamout	Energy:    -326.9020832
N         35.05277       26.91848       -0.02725
C         33.74213       26.22539        0.01061
C         36.29261       26.34248       -0.09188
C         32.66511       27.32740        0.03471
C         33.56306       25.35286       -1.25342
C         33.62834       25.35696        1.28529
O         37.35043       26.96038       -0.08320
H         35.06475       27.94049        0.05661
H         36.24529       25.21658       -0.16044
H         31.65176       26.87888        0.06280
H         32.77518       27.97367        0.93132
H         32.73134       27.96699       -0.87034
H         32.56338       24.87073       -1.25419
H         34.32372       24.54708       -1.30165
H         33.65574       25.96814       -2.17154
H         33.75774       25.97733        2.19583
H         32.63480       24.86452        1.33677
H         34.40011       24.56013        1.30268
