6
TETRACHLOROETHYLENE.gamout	Energy:   -1916.5113257
C          2.40629        2.23815        1.03719
C          1.30472        1.43548        0.94932
Cl        -0.05764        1.85275       -0.03488
Cl         1.18761       -0.05954        1.81506
Cl         3.76863        1.82090        2.02142
Cl         2.52343        3.73312        0.17136
