36
TETRAETHYLENEPENTAMINE.gamout	Energy:    -591.9699666
C        120.97614       10.07202       -0.00657
N        119.75499        9.27673       -0.04506
C        119.99355        7.83818       -0.05592
C        120.67302       11.57360        0.00781
C        118.68412        7.04174       -0.10631
N        121.90089       12.35621        0.04405
N        118.94874        5.60898       -0.10170
C        121.70137       13.80058        0.04558
C        117.77051        4.75541       -0.01500
C        123.03977       14.54891        0.02233
C        118.16695        3.27554        0.06025
N        122.82248       15.99883        0.02314
N        116.97997        2.42241        0.16487
H        121.63574        9.82187        0.87337
H        121.58258        9.84022       -0.91021
H        119.17425        9.51463        0.77181
H        120.59873        7.60021       -0.96276
H        120.59734        7.46860        0.81637
H        120.10746       11.83237       -0.91490
H        119.97332       11.79858        0.86353
H        118.07875        7.28110        0.79997
H        118.07655        7.40074       -0.97989
H        122.44413       12.09060        0.87773
H        119.48732        5.35867       -0.94232
H        121.12208       14.06895       -0.86917
H        121.09464       14.18121        0.91080
H        117.21377        5.02794        0.91288
H        117.03829        4.88441       -0.85674
H        123.60991       14.28737        0.94364
H        123.64135       14.15053       -0.83530
H        118.70240        3.00331       -0.87874
H        118.91783        3.16502        0.88507
H        123.72469       16.48844        0.08908
H        122.42564       16.28485       -0.88377
H        117.25396        1.43179        0.12141
H        116.55158        2.54430        1.09392
