5
TETRABROMOMETHANE.gamout	Energy:  -10334.5172767
Br        19.99997       39.01382       -0.00012
C         20.00000       37.05068        0.00016
Br        21.85078       36.39589       -0.00012
Br        19.07508       36.39750        1.60402
Br        19.07441       36.39703       -1.60309
