5
TETRACHLOROSILANE.gamout	Energy:   -2130.0194343
Si        -5.25926        4.00872        2.41208
Cl        -6.38553        4.64413        4.01110
Cl        -5.33253        5.41929        0.91729
Cl        -3.30930        3.74285        3.00915
Cl        -6.00988        2.22737        1.70982
