13
TETRANITROMETHANE.gamout	Energy:    -857.8922063
N         10.89619       30.87036       -0.13759
C         12.43797       31.00025        0.00041
N         12.74429       32.51678        0.13575
N         12.95290       30.21674        1.23901
N         13.15828       30.39660       -1.23606
O         10.34410       30.04238        0.56240
O         10.41961       31.63144       -0.96337
O         13.62425       32.97025       -0.57180
O         12.04912       33.07795        0.96645
O         12.92100       29.00608        1.09206
O         13.31316       30.87121        2.19935
O         14.36431       30.28866       -1.08760
O         12.46752       30.11271       -2.19668
