37
TETRAETHYLENE_GLYCOL_DIMETHYL_ETHER.gamout	Energy:    -769.7640948
C         -0.87918       -1.46346        0.78252
C          0.87940       -1.46388       -0.78340
C         -1.88260       -0.56319        1.47885
C          1.88313       -0.56391       -1.47946
C         -3.77373        0.78996        1.11499
C          3.77431        0.78882       -1.11539
C         -4.79924        1.18851        0.07090
C          4.79900        1.18822       -0.07089
C         -6.52459        0.34639       -1.28044
C          6.52362        0.34729        1.28201
O          0.00003       -0.68460       -0.00071
O         -2.81726       -0.07308        0.54040
O          2.81751       -0.07379       -0.54079
O         -5.62693        0.08473       -0.22888
O          5.62657        0.08472        0.23019
H         -0.31712       -2.04668        1.55728
H         -1.43658       -2.20309        0.15303
H          0.31754       -2.04721       -1.55821
H          1.43638       -2.20342       -0.15343
H         -2.39722       -1.15153        2.28190
H         -1.33482        0.27431        1.98186
H          2.39800       -1.15243       -2.28223
H          1.33570        0.27359       -1.98284
H         -3.28987        1.71728        1.51846
H         -4.30043        0.29615        1.97187
H          3.29068        1.71577       -1.51997
H          4.30166        0.29437       -1.97151
H         -5.40281        2.04648        0.46834
H         -4.26703        1.55655       -0.84314
H          5.40278        2.04598       -0.46846
H          4.26610        1.55679        0.84252
H         -7.13398       -0.56544       -1.43953
H         -7.21512        1.19689       -1.04778
H         -5.99764        0.59311       -2.23648
H          7.13299       -0.56436        1.44215
H          7.21420        1.19765        1.04904
H          5.99616        0.59474        2.23758
