46
TETRAPHENYLETHYLENE.gamout	Energy:   -1002.0700527
C          5.07013        5.97149        3.21720
C          6.09464        5.04592        3.30945
C          7.46622        5.31485        2.77064
C          5.90867        3.70454        3.95063
C          5.32265        7.41391        2.89954
C          3.63467        5.60370        3.43721
C          7.64726        5.74756        1.43609
C          8.62056        5.08477        3.55574
C          6.35244        2.52057        3.31615
C          5.33406        3.58975        5.23779
C          6.28063        8.15512        3.62932
C          4.57278        8.09378        1.91139
C          3.04968        4.51333        2.75303
C          2.80582        6.37184        4.28803
C          8.93147        5.95017        0.91058
C          9.90322        5.30285        3.03570
C          6.20052        1.27079        3.93142
C          5.19418        2.34083        5.85913
C          6.49060        9.51705        3.37256
C          4.79322        9.45148        1.64522
C          1.69455        4.19706        2.92274
C          1.45522        6.04704        4.46829
C         10.06640        5.73307        1.70827
C          5.62232        1.17333        5.20751
C          5.75173       10.17266        2.37588
C          0.88969        4.95897        3.78445
H          6.76392        5.91402        0.80224
H          8.50495        4.73760        4.59358
H          6.81386        2.58430        2.31921
H          5.00036        4.49986        5.75683
H          6.85843        7.65165        4.41749
H          3.81256        7.54180        1.33966
H          3.66968        3.91504        2.07004
H          3.23321        7.23317        4.82231
H          9.04531        6.27711       -0.13416
H         10.78523        5.12973        3.67103
H          6.54104        0.36296        3.41094
H          4.75038        2.28131        6.86454
H          7.23606       10.07154        3.96127
H          4.20695        9.95411        0.86180
H          1.26372        3.34816        2.37134
H          0.83626        6.65283        5.14710
H         11.07446        5.89403        1.29791
H          5.51107        0.19219        5.69274
H          5.91735       11.24149        2.17217
H         -0.17374        4.70920        3.91873
