19
TOLUENEDIAMINE.gamout	Energy:    -382.0039674
C          7.28618        3.04122       -0.95954
C          6.37165        1.87252       -0.68008
C          6.86624        0.59619       -0.35530
C          4.95467        2.03941       -0.72693
C          6.02987       -0.49425       -0.07460
C          4.62390       -0.32688       -0.11509
N          3.76542       -1.40908        0.10063
C          4.10603        0.94545       -0.44703
N          4.41210        3.30079       -0.98851
H          8.35039        2.75866       -0.83525
H          7.17556        3.43023       -1.99996
H          7.08396        3.89924       -0.27889
H          7.95948        0.45266       -0.31472
H          6.46090       -1.47746        0.17351
H          2.82355       -1.16829        0.41733
H          4.16410       -2.17834        0.64327
H          3.01245        1.08870       -0.49214
H          4.98792        3.92177       -1.56108
H          3.43332        3.30545       -1.28339
