21
TRANS-1,2-DIMETHYLCYCLOPENTANE.gamout	Energy:    -274.9724434
C          4.57802        2.57574        1.67037
C          3.18024        2.88530        1.12697
C          2.03283        2.01648        1.70512
C          2.69361        4.32687        1.40453
C          2.05699        0.54011        1.30234
C          0.76282        2.77749        1.25702
C          1.14525        4.28586        1.26481
H          5.34279        3.25564        1.23866
H          4.89207        1.53703        1.43577
H          4.61054        2.69565        2.77573
H          3.18705        2.72237        0.02112
H          2.10665        2.07951        2.81846
H          3.17164        5.07172        0.73426
H          2.98513        4.60341        2.44232
H          1.19294       -0.01209        1.72911
H          2.97822        0.02866        1.65272
H          2.01048        0.42647        0.19665
H         -0.11501        2.54809        1.89685
H          0.49554        2.44811        0.22809
H          0.80738        4.78686        0.33390
H          0.65452        4.82738        2.10001
