27
TRANS-1-METHYL-4-ETHYLCYCLOHEXANE.gamout	Energy:    -353.5464602
C          3.13810        1.99356        2.14864
C          3.90543        2.12463        3.48245
C          4.04318        2.44346        0.98206
C          5.25681        1.38932        3.45987
C          5.39359        1.70839        0.96007
C          6.15915        1.84083        2.29335
H          2.91068        0.90877        1.99821
H          4.07674        3.20794        3.68911
H          3.28778        1.74313        4.32379
H          4.22204        3.54093        1.07308
H          3.51342        2.29562        0.01477
H          5.78520        1.53573        4.42809
H          5.07746        0.29195        3.36703
H          6.02214        2.08615        0.12318
H          5.22178        0.62530        0.75367
H          6.38194        2.92555        2.44338
C          1.79570        2.75527        2.14319
C          0.74876        2.24434        3.14136
C          7.49285        1.08180        2.26735
H          1.37224        2.70407        1.11442
H          1.99826        3.83543        2.33168
H         -0.20993        2.79426        3.03737
H          0.52984        1.16599        2.98332
H          1.07887        2.36343        4.19463
H          8.14587        1.43380        1.44072
H          8.05558        1.20777        3.21685
H          7.32721       -0.00816        2.12084
