22
TRANS-2-METHYLCYCLOHEXANOL.gamout	Energy:    -350.1429737
C         -1.75779        0.65588       -1.28947
C         -0.85234        0.54027       -0.05617
C         -0.06750       -0.78686       -0.04221
C          0.11978        1.73486        0.06443
C          1.82078        0.30533        1.29140
C          0.85822       -0.88844        1.18358
C          1.04622        1.63382        1.28721
O         -1.01657       -1.85282       -0.06752
H         -2.35148        1.59398       -1.26488
H         -1.15619        0.66550       -2.22514
H         -2.45845       -0.20000       -1.34712
H         -1.49780        0.52492        0.85478
H          0.56863       -0.80774       -0.96948
H         -0.46482        2.68027        0.09827
H          0.73700        1.78794       -0.86358
H          2.44560        0.21527        2.20615
H          2.52716        0.28936        0.42914
H          1.42802       -1.84523        1.13825
H          0.21194       -0.94506        2.08883
H          1.75145        2.49318        1.30881
H          0.43708        1.70531        2.21742
H         -0.51263       -2.68767       -0.05820
