16
TRANS-1,3-HEXADIENE.gamout	Energy:    -234.4375729
C          5.07896        0.28318        2.51868
C          4.56341        0.72824        1.34957
C          3.20708        1.25035        1.13058
C          2.42954        1.88161        2.04519
C          1.03536        2.38795        1.79309
C          0.88364        3.90688        2.00443
H          6.12066       -0.06773        2.58697
H          4.47498        0.24502        3.44095
H          5.20559        0.68695        0.44953
H          2.80218        1.12665        0.10737
H          2.84698        2.06825        3.05433
H          0.72470        2.11244        0.76156
H          0.33087        1.86233        2.48069
H          1.16928        4.20373        3.03585
H          1.53010        4.47554        1.30397
H         -0.16539        4.23077        1.84096
