10
TRANS-CROTONITRILE.gamout	Energy:    -209.9925239
C          0.79214        3.06726        0.86282
C          2.13715        2.41344        0.81862
C          2.34300        1.07216        0.78333
C          3.64300        0.47620        0.74188
N          4.70208       -0.03392        0.70774
H          0.69213        3.70402        1.76930
H          0.65405        3.74566       -0.00770
H         -0.03289        2.32706        0.86330
H          3.02034        3.07782        0.81473
H          1.48774        0.37219        0.78563
