16
TRANS-1,4-HEXADIENE.gamout	Energy:    -234.4335066
C          4.25558        3.15150        0.69145
C          3.84865        3.38845        1.95129
C          3.91517        2.40014        3.09548
C          2.56676        2.13494        3.72877
C          1.97110        0.92830        3.81175
C          0.63252        0.65507        4.43772
H          4.68398        2.17768        0.39658
H          4.17785        3.92090       -0.09377
H          3.42079        4.37995        2.19630
H          4.36909        1.44723        2.74783
H          4.59993        2.81484        3.87573
H          2.04089        3.01678        4.14566
H          2.50191        0.05329        3.38727
H          0.16388        1.57897        4.83479
H         -0.07194        0.20214        3.70477
H          0.71571       -0.07257        5.27581
