18
TRANS-2-HEXENE.gamout	Energy:    -235.6663735
C          2.84146        1.87473        1.85059
C          1.37406        1.53655        1.92954
C          0.93190        0.86040        3.25038
C          3.71567        1.32725        0.97995
C          1.09407        1.73165        4.50277
C          5.18121        1.64733        0.88964
H          3.22267        2.62833        2.56734
H          1.10994        0.87223        1.07761
H          0.77508        2.46926        1.79671
H          1.50462       -0.08561        3.37602
H         -0.13619        0.56511        3.14741
H          3.33111        0.57741        0.26007
H          0.53285        2.68639        4.40689
H          2.15682        1.98889        4.69526
H          0.71407        1.21259        5.40732
H          5.80640        0.73948        1.04269
H          5.48618        2.40271        1.64297
H          5.45045        2.04061       -0.11628
