12
TRANS-2-BUTENE.gamout	Energy:    -157.1020657
C          1.96046        0.92500        0.87941
C          2.96551        1.66116        1.39718
C          4.43007        1.33990        1.28909
C          0.49583        1.24569        0.98824
H          2.22020        0.00242        0.32295
H          2.70579        2.58373        1.95367
H          4.60565        0.40847        0.71197
H          4.99228        2.16103        0.79091
H          4.89425        1.21127        2.29248
H          0.02943        1.36715       -0.01498
H         -0.06449        0.42723        1.49300
H          0.32046        2.18059        1.55980
