14
TRANS-2-BUTENE-1,4-DIOL.gamout	Energy:    -307.4124362
C          0.99041       -0.21021       -0.11336
C          0.35852        0.62631       -1.19580
C         -0.75189        1.37966       -1.04910
C         -1.38376        2.21620       -2.13154
O          2.35412        0.13869        0.11119
O         -2.74748        1.86734       -2.35609
H          0.37281       -0.15490        0.81835
H          1.00780       -1.27888       -0.42357
H          0.89171        0.62093       -2.16702
H         -1.28509        1.38507       -0.07788
H         -0.76616        2.16088       -3.06324
H         -1.40113        3.28487       -1.82132
H          2.36250        1.08572        0.34966
H         -2.75590        0.92031       -2.59458
