26
TRI-(2-HYDROXYETHYL)-AMMONIUM+1.gamout	Energy:    -518.0411101
C         -4.11508        1.25034        0.38874
C         -2.64755        0.98668        0.70125
N         -1.71177        1.17531       -0.48498
H         -2.53695       -0.06567        1.02641
H         -2.25676        1.63494        1.50883
C         -0.39040        0.45464       -0.27352
C         -0.50782       -1.06625       -0.43071
H          0.31357        0.82496       -1.04399
H          0.00158        0.76008        0.71284
C         -1.52009        2.63518       -0.93200
C         -1.26642        3.61173        0.20737
H         -2.44806        2.93113       -1.45529
H         -0.67125        2.60929       -1.64309
O         -0.22345        3.11084        1.02576
H         -2.21553        3.77410        0.76855
H         -1.01185        4.58328       -0.28032
H          0.01276        3.78659        1.68903
O         -4.28948        2.60290        0.01560
H         -4.46116        0.54109       -0.40677
H         -4.67931        0.98224        1.31381
H         -5.24362        2.78663       -0.08356
O          0.82095       -1.51891       -0.48233
H         -1.08203       -1.29578       -1.37131
H         -1.08107       -1.51801        0.41642
H          0.83169       -2.49404       -0.44299
H         -2.16252        0.70482       -1.29353
