5
TRIBROMOMETHANE.gamout	Energy:   -7761.0151095
C          0.96285        0.87715        0.04181
Br        -0.02267        2.56093       -0.03568
Br         2.89402        1.15724       -0.03544
Br         0.44418       -0.20262        1.58340
H          0.68705        0.30377       -0.85780
