8
TRICHLOROACETIC_ACID.gamout	Energy:   -1607.3856709
Cl         0.84092       -1.68082       -0.20738
Cl         1.18604        0.95231       -1.45485
Cl         1.19708        0.72328        1.47024
O         -1.58997        0.97787       -0.90290
O         -1.68395       -0.30948        0.96326
C          0.49273        0.07780       -0.05439
C         -1.06056        0.21932        0.07256
H         -2.55843        0.99854       -0.72719
