5
TRICHLOROSILANE.gamout	Energy:   -1670.4682959
Cl         1.16277       -1.56273        0.17378
Cl        -1.93454       -0.22665        0.17400
Cl         0.77161        1.78913        0.17376
Si         0.00019        0.00031       -0.51247
H          0.00042        0.00025       -1.99912
