20
TRIETHYLENEDIAMINE.gamout	Energy:    -345.0738196
C          0.69916       -0.36958        1.38360
C          0.62218        1.45784       -0.17281
N          1.26713        0.16965        0.13554
N         -1.26821       -0.16865       -0.13514
C         -0.92755        1.25075       -0.33986
C         -0.54645       -0.98563       -1.12695
C          1.00407       -0.77762       -0.96221
C         -0.85062       -0.57430        1.21908
H          1.21906       -1.32491        1.61490
H          0.93406        0.33884        2.20797
H          0.85496        2.16992        0.64904
H          1.08339        1.86530       -1.09903
H         -1.27272        1.54990       -1.35379
H         -1.50346        1.85668        0.39348
H         -0.83320       -2.04941       -0.97709
H         -0.89395       -0.69033       -2.14089
H          1.46456       -0.37255       -1.88967
H          1.52420       -1.73248       -0.72856
H         -1.14191       -1.63677        1.36873
H         -1.42454        0.02967        1.95555
