14
TRIFLUOROETHYL_TRIFLUOROACETATE.gamout	Energy:    -902.4671300
C         35.05215       28.04132       -0.32517
O         36.01397       27.73521        0.57828
C         37.26791       28.41553        0.43834
C         33.79071       27.18177       -0.03303
O         35.12272       28.86149       -1.20750
C         38.34235       27.42831       -0.01884
F         34.10240       25.87086        0.00371
F         33.26072       27.52954        1.16047
F         32.87328       27.38328       -0.98667
F         37.99696       26.82952       -1.17939
F         39.50028       28.10279       -0.21370
F         38.56654       26.46412        0.89752
H         37.18645       29.22929       -0.30925
H         37.55070       28.82069        1.42927
