5
TRIIODOMETHANE.gamout	Energy:    -932.1588353
I          1.77703        1.50115        0.06612
C         -0.12743        0.46828       -0.05494
I         -1.84267        1.80087        0.06367
I         -0.24902       -0.89273       -1.74199
H         -0.19373       -0.16462        0.84323
