35
TRIPHENYLMETHANE.gamout	Energy:    -733.1213700
C          1.72117       -1.65526        1.44012
C          2.75685       -1.66180        0.30836
C          0.30371       -1.98822        0.95636
C          1.79273       -0.37733        2.28594
C          4.09168       -2.01466        0.60067
C         -0.06153       -3.34019        0.78058
C          2.04699        0.88772        1.71996
C          2.43845       -1.29225       -1.01233
C         -0.64691       -0.99599        0.64840
C          1.57941       -0.45581        3.67737
C          5.08083       -1.99191       -0.39286
C         -1.33041       -3.69165        0.29752
C          2.07112        2.04086        2.51924
C          3.42771       -1.26485       -2.00930
C         -1.91604       -1.34327        0.15861
C          1.60910        0.69383        4.48101
C          4.75148       -1.61491       -1.70550
C         -2.26370       -2.69061       -0.01950
C          1.85182        1.94952        3.90237
H          2.00992       -2.48478        2.12100
H          4.35842       -2.29949        1.63108
H          0.67023       -4.12912        1.01792
H          2.24466        0.96866        0.64040
H          1.40116       -1.03022       -1.26917
H         -0.39463        0.06420        0.79970
H          1.38228       -1.43724        4.13681
H          6.11427       -2.27661       -0.14271
H         -1.59253       -4.75321        0.17173
H          2.27023        3.01960        2.05711
H          3.15648       -0.97140       -3.03493
H         -2.64045       -0.54974       -0.08028
H          1.44501        0.60632        5.56599
H          5.52456       -1.59847       -2.48887
H         -3.26131       -2.96110       -0.39671
H          1.87845        2.85396        4.52906
