12
URACIL.gamout	Energy:    -414.5363206
C         -0.21682        1.41762       -0.20268
C         -1.37508        0.69581       -0.17003
C         -1.33251       -0.75494        0.04999
N         -0.00702       -1.25147        0.21096
N          1.01478        0.82442       -0.03361
C          1.19793       -0.55321        0.18485
H          0.07622       -2.26190        0.36786
H          1.87648        1.37374       -0.05977
H         -0.20167        2.50642       -0.36465
H         -2.35453        1.17064       -0.30489
O         -2.29216       -1.51475        0.10137
O          2.29969       -1.05925        0.33285
