8
VINYLACETYLENE.gamout	Energy:    -154.6162068
C          1.76261        1.37945        0.16000
C          2.87979        2.26595        0.13150
C          4.17561        1.87861        0.04916
C          0.77666        0.64871        0.18707
H          2.64104        3.34522        0.18138
H          4.98569        2.62413        0.03196
H          4.45659        0.81487       -0.00282
H         -0.08156       -0.00866        0.20945
