6
VINYL_BROMIDE.gamout	Energy:   -2652.0454615
Br         1.69135        0.58125        0.00000
C          0.10853       -0.47455       -0.00000
C          0.10741       -1.81455        0.00000
H         -0.80379        0.14190        0.00000
H         -0.85561       -2.35116        0.00000
H          1.03420       -2.40865       -0.00000
