6
VINYL_FLUORIDE.gamout	Energy:    -177.6864409
C          2.16903        1.97629        0.09209
C          0.99457        1.33613        0.05039
F          0.89392       -0.00581        0.06591
H          3.12048        1.42558        0.14171
H          2.18722        3.07512        0.07656
H          0.00571        1.82537       -0.00007
