3
WATER.gamout	Energy:     -76.3591338
O         -0.23168       -0.32731        0.00000
H          0.74207       -0.26499        0.00000
H         -0.49727        0.61173        0.00000
