23
XANTHONE.gamout	Energy:    -650.2012104
O         -2.20616        0.17876       -2.61325
C         -2.25821        0.49009       -1.41943
C         -2.22740       -0.50952       -0.32060
C         -2.35863        1.89572       -0.95013
C         -2.29094       -0.09928        1.03334
C         -2.13452       -1.89189       -0.60811
C         -2.41575        2.19381        0.43385
C         -2.39933        2.96356       -1.87726
O         -2.38279        1.21926        1.39770
C         -2.26275       -1.04455        2.07976
C         -2.10623       -2.83523        0.42081
C         -2.51150        3.52642        0.88506
C         -2.49405        4.28609       -1.44006
C         -2.17083       -2.40508        1.76670
C         -2.55002        4.56280       -0.05378
H         -2.08617       -2.17796       -1.67034
H         -2.35332        2.69959       -2.94540
H         -2.31450       -0.69001        3.11993
H         -2.03425       -3.90898        0.18858
H         -2.55394        3.72110        1.96708
H         -2.52532        5.11132       -2.16804
H         -2.14886       -3.14515        2.58230
H         -2.62533        5.60437        0.29665
