20
XYLOSE.gamout	Energy:    -572.2118276
O         -2.87205        1.57622        1.52418
C         -1.88205        1.62645        0.80888
C         -1.37246        0.38051        0.11727
O         -2.25044       -0.69439        0.38015
C          0.06980        0.00622        0.60944
O          0.24590       -1.38539        0.39584
C          1.15933        0.72750       -0.21172
O          1.10210        0.26660       -1.55065
C          2.54846        0.55363        0.41835
O          3.45057        1.41485       -0.25043
H         -1.30336        2.58055        0.66179
H         -1.29091        0.55802       -0.98329
H         -2.88009       -0.33100        1.05398
H          0.16811        0.25520        1.69732
H         -0.66010       -1.76287        0.51012
H          0.95039        1.82226       -0.23823
H          0.99040       -0.70638       -1.45293
H          2.83443       -0.52359        0.33891
H          2.47497        0.78967        1.51301
H          4.35498        1.13886       -0.01822
