8
1,1,1-TRICHLOROTRIFLUOROETHANE.gamout	Energy:   -1755.7374068
Cl        -1.32228        1.04749       -1.33545
Cl        -1.32433        0.63143        1.57492
Cl        -1.32315       -1.68023       -0.24007
F          1.28804        1.24765        0.17800
F          1.28891       -0.77651        0.99114
F          1.28422       -0.46993       -1.16888
C         -0.75038        0.00021        0.00046
C          0.82276        0.00076        0.00042
