11
1,1,1,2,3,3-HEXAFLUOROPROPANE.gamout	Energy:    -714.0224485
C         -1.54598        1.27451        0.01125
C         -0.19390        2.00788       -0.06894
F         -1.60424        0.57591        1.17666
H         -0.16851        2.74013        0.77012
F          2.14946        1.83070        0.13823
F         -1.72340        0.41636       -1.00637
F         -0.12306        2.67848       -1.26684
F         -2.56354        2.15818        0.00111
C          1.01471        1.07355        0.09364
F          1.10641        0.21904       -0.96219
H          0.93554        0.48117        1.03452
