8
1,1,1-TRIFLUOROETHANE.gamout	Energy:    -377.2737175
F         -0.44357        0.01779        1.26221
C          0.05516       -0.00000       -0.00048
C          1.56654        0.00013        0.00086
F         -0.44503       -1.10228       -0.61573
F         -0.44480        1.08437       -0.64687
H          1.93693       -0.89484        0.53543
H          1.93962       -0.01463       -1.04053
H          1.93607        0.91009        0.51007
