18
1,1,2-TRIMETHYLCYCLOPROPANE.gamout	Energy:    -235.6607285
C          2.15520        2.92155        2.51135
C          3.42696        3.05357        3.33962
C          0.88201        3.16822        3.31218
C          2.08054        1.89501        1.38180
C          2.17927        3.37670        1.05836
C          3.19827        0.92376        1.04885
H          3.44765        2.31002        4.16629
H          3.48929        4.06344        3.80073
H          4.34539        2.91109        2.73603
H         -0.02592        3.05094        2.68487
H          0.86742        4.19601        3.73696
H          0.79979        2.45426        4.16090
H          1.07326        1.45723        1.25031
H          3.13844        3.74718        0.65691
H          1.29339        3.89096        0.64892
H          3.17880        0.03466        1.71546
H          4.20071        1.38904        1.14134
H          3.10609        0.55869        0.00326
