27
1,1,2-TRIMETHYLCYCLOHEXANE.gamout	Energy:    -353.5387226
C          1.29973        1.45606        4.39840
C          1.88255        2.43898        3.36226
C          2.12882        1.81262        1.93796
C          3.16746        3.12108        3.90370
C          2.32440        2.94793        0.90382
C          0.91312        0.98124        1.47623
C          3.38606        0.89637        1.97620
C          4.38795        2.18374        3.91702
C          4.64742        1.58804        2.52344
H          0.29211        1.09626        4.10981
H          1.19709        1.95677        5.38441
H          1.93896        0.56110        4.55453
H          1.11823        3.23887        3.22210
H          3.40190        4.01437        3.28426
H          2.96999        3.50938        4.92720
H          1.40525        3.56710        0.82368
H          2.53150        2.52774       -0.10379
H          3.16045        3.63232        1.15173
H         -0.02294        1.57958        1.51245
H          0.76170        0.07296        2.09514
H          1.05028        0.64281        0.42676
H          3.57247        0.49435        0.95513
H          3.16216        0.01170        2.61466
H          5.28434        2.72805        4.28596
H          4.21664        1.35564        4.64245
H          5.49165        0.86555        2.56063
H          4.96707        2.39655        1.82825
