27
1,1,3-TRIMETHYLCYCLOHEXANE.gamout	Energy:    -353.5453770
C         -0.27717       -1.19997        0.88722
C         -1.31621       -0.74325       -0.15746
C         -1.13953        0.76027       -0.46142
C          0.29476        1.18351       -0.88494
C          1.30539        0.65164        0.16903
C          1.15970       -0.85054        0.46657
H         -0.50622       -0.69988        1.85851
H         -0.37567       -2.29273        1.07076
H         -1.12087       -1.31301       -1.09622
C         -2.75211       -1.05685        0.29073
H         -1.86371        1.07605       -1.24660
H         -1.41451        1.33126        0.45707
C          0.63604        0.64050       -2.29260
C          0.37300        2.72433       -0.92797
H          2.34289        0.88372       -0.16091
H          1.14887        1.21728        1.11674
H          1.87783       -1.15013        1.26063
H          1.43660       -1.44610       -0.43235
H          0.13865        3.16709        0.06396
H         -0.34732        3.14321       -1.66327
H          1.38915        3.06656       -1.21918
H         -0.07731        1.03247       -3.04873
H          0.60256       -0.46665       -2.34571
H          1.65576        0.95880       -2.59708
H         -3.00209       -0.50955        1.22592
H         -2.88828       -2.14074        0.49046
H         -3.49420       -0.75749       -0.47931
