8
1,1,1,2-TETRAFLUOROETHANE.gamout	Energy:    -476.4175874
F         -0.46895       -1.09180       -0.78621
C         -0.38974       -0.00001        0.00342
C          0.88366       -0.00027        0.84827
F          1.99618       -0.00001        0.04049
F         -0.46894        1.09228       -0.78551
F         -1.46324       -0.00028        0.83457
H          0.87421        0.90652        1.49169
H          0.87423       -0.90746        1.49113
