21
1,1-DIMETHYLCYCLOPENTANE.gamout	Energy:    -274.9696217
C          1.73428        0.55696       -0.98647
C          0.68057        0.00764       -0.00607
C         -0.28391        1.14387        0.51387
C         -1.71477        0.75454        0.06943
C         -1.65873       -0.77771       -0.06792
C         -0.28369       -0.99994       -0.71772
C          1.38934       -0.68047        1.18078
H          2.42459        1.27057       -0.48672
H          2.35330       -0.26135       -1.41453
H          1.25314        1.09022       -1.83399
H         -0.22866        1.20838        1.62183
H          0.01396        2.14172        0.12889
H         -2.50019        1.10758        0.77036
H         -1.94659        1.20422       -0.92185
H         -1.69556       -1.25097        0.93936
H         -2.50016       -1.20203       -0.65513
H         -0.35055       -0.74314       -1.79881
H          0.08013       -2.04753       -0.65492
H          2.00173        0.04534        1.75828
H          0.65890       -1.13205        1.88552
H          2.06601       -1.48903        0.83005
