8
1,1-DIFLUORO-2-BROMOETHANE.gamout	Energy:   -2851.6035047
Br         0.02947       18.93863       -0.05155
C          1.67351       19.99770        0.00865
C          1.37698       21.49088        0.00187
F          0.73408       21.86532        1.14373
F          2.58031       22.15328       -0.04590
H          2.22258       19.72974        0.93145
H          2.27180       19.72810       -0.88095
H          0.76282       21.80712       -0.87286
