24
1,1-DIMETHYLCYCLOHEXANE.gamout	Energy:    -314.2612059
C         -1.19494        0.00000        1.54601
C         -0.92432        0.00000        0.02351
C         -0.11800        1.26337       -0.39261
C          1.33822        1.26905        0.10773
C          2.08696        0.00000       -0.33390
C          1.33822       -1.26905        0.10773
C         -0.11800       -1.26337       -0.39261
C         -2.28112       -0.00000       -0.71204
H         -1.78194        0.89601        1.84081
H         -1.78195       -0.89601        1.84081
H         -0.26419       -0.00000        2.14951
H         -0.10859        1.31643       -1.50625
H         -0.65224        2.17619       -0.04526
H          1.86113        2.17757       -0.26304
H          1.35661        1.34033        1.21883
H          2.17871       -0.00000       -1.44536
H          3.12532       -0.00000        0.06363
H          1.86113       -2.17757       -0.26304
H          1.35660       -1.34034        1.21883
H         -0.65225       -2.17619       -0.04527
H         -0.10859       -1.31643       -1.50625
H         -2.88030        0.89714       -0.44606
H         -2.13988        0.00000       -1.81394
H         -2.88030       -0.89714       -0.44607
