15
1,2,4-BENZENETRIOL.gamout	Energy:    -457.5861600
O         -1.73097        1.72628       -0.00000
O         -2.50229       -0.83279        0.00000
O          2.92260        0.41501        0.00000
C         -0.76801        0.76318       -0.00000
C         -1.13873       -0.60586       -0.00000
C          1.58613        0.11447       -0.00000
C          0.59095        1.11629        0.00000
C         -0.14590       -1.59436       -0.00000
C          1.21763       -1.24514       -0.00000
H          0.85433        2.18656        0.00000
H         -0.43762       -2.65856        0.00000
H          2.00159       -2.01584       -0.00000
H         -2.59034        1.25350       -0.00000
H         -2.67279       -1.79227       -0.00010
H          3.01969        1.38566       -0.00010
