11
1,2,3-TRICHLOROPROPANE.gamout	Energy:   -1497.5369575
C          3.57896        0.90958        1.28721
C          2.07111        0.98268        1.54209
C          1.68427        2.07855        2.52779
Cl         1.28164        1.26308       -0.07627
Cl         4.46776        0.37794        2.77742
Cl        -0.06167        2.02867        2.96564
H          3.98682        1.89540        0.98819
H          3.79554        0.17153        0.49290
H          1.69959        0.00179        1.90061
H          1.90052        3.08088        2.10742
H          2.26522        1.93931        3.46125
