12
1,2,3,5-TETRAFLUOROBENZENE.gamout	Energy:    -628.7069312
F          7.15167        2.89360       -0.94487
C          6.33773        1.86633       -0.67251
C          6.86091        0.60300       -0.33507
C          4.93887        2.02472       -0.71684
F          8.19201        0.45358       -0.29318
C          6.02322       -0.48318       -0.04695
F          4.44398        3.22804       -1.03818
C          4.07208        0.96023       -0.43467
C          4.63683       -0.27994       -0.10335
F          3.81849       -1.31168        0.17046
H          6.44768       -1.46209        0.21465
H          2.98328        1.10109       -0.47374
