22
1,2,3,4-TETRAHYDRONAPHTHALENE.gamout	Energy:    -388.0162165
C          3.50074        1.86287        1.42707
C          3.38923        3.27699        1.46846
C          4.62355        4.16611        1.52392
C          2.10308        3.86190        1.49050
C          2.32175        1.08416        1.41344
C          4.85971        1.17868        1.36471
C          5.91499        3.45396        1.09517
C          0.94090        3.07813        1.47506
C          1.05126        1.67656        1.43724
C          6.02536        2.08685        1.78554
H          4.74292        4.53611        2.57000
H          4.45307        5.07559        0.90707
H          2.02035        4.96167        1.52062
H          2.40990       -0.01526        1.38379
H          5.02945        0.82986        0.31843
H          4.83710        0.25587        1.98435
H          6.79511        4.08955        1.33087
H          5.91668        3.30902       -0.00946
H         -0.05045        3.55835        1.49121
H          0.14755        1.04655        1.42734
H          6.99377        1.59805        1.54628
H          6.00855        2.23240        2.88993
