13
1,2-EPOXYBUTANE.gamout	Energy:    -232.2469662
C          1.80868        2.05676        1.01088
C          1.02458        0.92568        1.68977
C          3.28993        1.75783        0.89062
C          4.27812        2.22719        1.88706
O          4.16140        2.86327        0.60839
H          1.40434        2.23980       -0.01005
H          1.68706        3.01239        1.56591
H          1.39986        0.72946        2.71631
H         -0.05366        1.17365        1.76838
H          1.10353       -0.02491        1.12020
H          3.53887        0.83414        0.32450
H          5.21033        1.65370        2.06012
H          3.93137        2.82526        2.75369
