11
1,2-DICHLOROPROPANE.gamout	Energy:   -1038.0445149
C          1.56894        0.73406        1.23526
C          2.38549        1.96011        0.82503
C          2.79080        2.87436        1.97148
Cl         3.87990        1.30492       -0.01742
Cl        -0.04026        1.22819        1.91821
H          2.09497        0.14501        2.01262
H          1.36674        0.08520        0.36271
H          1.83461        2.51917        0.04169
H          3.37144        3.74162        1.60112
H          3.40867        2.32763        2.71297
H          1.87809        3.24814        2.47975
