16
1,2-HEXADIENE.gamout	Energy:    -234.4209667
C          1.13777        0.40230       -0.19760
C          2.32510       -0.09506        0.09006
C          3.51314       -0.59218        0.38436
C          4.40257       -0.14264        1.52626
C          5.75494        0.42878        1.05057
C          6.67971        0.83233        2.20455
H          0.21287       -0.02397        0.23115
H          1.02191        1.26270       -0.88109
H          3.91048       -1.39788       -0.26613
H          4.59646       -1.01367        2.19519
H          3.86700        0.61272        2.14065
H          5.56192        1.30415        0.39178
H          6.26337       -0.32724        0.40995
H          6.21623        1.61148        2.84732
H          7.64229        1.24033        1.83216
H          6.91573       -0.03505        2.85777
