8
1,2-DICHLOROTETRAFLUOROETHANE.gamout	Energy:   -1395.4050201
Cl        -2.16266        0.34288        0.00000
C         -0.58946       -0.51864        0.00000
C          0.58946        0.51864       -0.00000
Cl         2.16266       -0.34288       -0.00000
F          0.50123        1.29466       -1.09360
F          0.50123        1.29466        1.09360
F         -0.50123       -1.29466        1.09360
F         -0.50123       -1.29466       -1.09360
