11
1,2-DIBROMOPROPANE.gamout	Energy:   -5266.0813811
Br        -1.96503        0.12544        0.04086
C         -0.56904       -1.16528       -0.45553
C          0.71375       -1.04222        0.35547
C          1.67381       -2.19780        0.07458
Br         1.63084        0.68355       -0.03243
H         -1.01593       -2.16546       -0.28352
H         -0.38283       -1.03254       -1.53867
H          0.47635       -0.97407        1.43540
H          1.96122       -2.23137       -0.99608
H          2.59729       -2.09074        0.67569
H          1.19459       -3.16468        0.34142
