10
1,2-ETHANEDITHIOL.gamout	Energy:    -875.9715509
S          0.00712        1.25087        2.24343
C          1.42334        2.18516        1.53256
C          2.81015        1.57923        1.78055
S          3.09273       -0.08411        1.04662
H          0.22091        1.62544        3.53824
H          1.21183        2.23079        0.44342
H          1.39477        3.23133        1.90731
H          3.59664        2.27609        1.41786
H          2.98353        1.44061        2.86857
H          3.21468        0.34582       -0.24287
