9
1,3-DICHLOROPROPENE.gamout	Energy:   -1036.8099680
C          2.59325        0.49518        0.18418
C          1.35366       -0.32439        0.32314
C          1.22876       -1.53754       -0.24951
Cl         2.26355        2.05482       -0.72185
Cl        -0.18415       -2.53767       -0.09019
H          2.99113        0.80963        1.16959
H          3.38829       -0.03677       -0.37342
H          0.52599        0.09286        0.92093
H          2.01824       -1.99618       -0.86775
