24
1,3-DIMETHYLNAPHTHALENE.gamout	Energy:    -464.1793699
C          4.65059        3.93480        0.90490
C          4.76870        5.44616        0.90509
C          3.38205        3.25217        0.90497
C          5.82273        3.17544        0.90358
C          3.37461        1.80075        0.90336
C          2.11916        3.92607        0.90644
C          5.83201        1.75109        0.90206
C          4.60654        1.08725        0.90230
C          2.12152        1.11079        0.90317
C          0.92054        3.22479        0.90615
C          7.13876        0.98684        0.89903
C          0.91912        1.80176        0.90432
H          5.34308        5.79876        1.78783
H          5.31083        5.80198        0.00320
H          3.79242        5.96400        0.92323
H          6.79269        3.70289        0.90389
H          2.09282        5.02586        0.90810
H          4.57552       -0.01577        0.90180
H          2.13054        0.00820        0.90178
H         -0.03544        3.77228        0.90738
H          7.21582        0.31004        1.77659
H          7.23510        0.35066       -0.00676
H          8.01116        1.66997        0.92333
H         -0.03678        1.25418        0.90395
