14
1,3-BENZENEDIOL.gamout	Energy:    -382.4174335
O          0.28127        2.53815        0.24126
C          1.64607        2.53723        0.18440
C          2.29144        1.28672        0.20063
C          2.40020        3.73088        0.11188
C          3.69652        1.22783        0.14395
C          3.80064        3.65415        0.05597
O          4.27271       -0.01045        0.16277
C          4.46026        2.41524        0.07119
H         -0.02462        3.46474        0.22185
H          1.70092        0.36151        0.25743
H          1.89109        4.70893        0.09931
H          4.39231        4.58176       -0.00082
H          5.24115        0.10235        0.11899
H          5.56099        2.36512        0.02706
