36
1,4-DI-tert-BUTYLBENZENE.gamout	Energy:    -546.3373261
C         -1.66957        1.50040        0.78116
C         -0.28840        1.22855        0.83421
C          0.27263        0.10949        0.18802
C         -0.62576       -0.72817       -0.51644
C         -2.56307        0.66652        0.08037
C         -1.99884       -0.45893       -0.56782
C         -4.08257        0.92880       -0.00059
C         -4.49446        2.20196        0.76857
H         -4.00185        3.11000        0.36258
H         -5.59092        2.35580        0.68749
H         -4.24832        2.13111        1.84859
C         -4.84313       -0.27780        0.60926
H         -4.56431       -0.42815        1.67309
H         -4.62206       -1.22023        0.06742
H         -5.94078       -0.11183        0.56139
C         -4.49690        1.09950       -1.48554
H         -5.58919        1.28697       -1.56434
H         -3.96572        1.95525       -1.95193
H         -4.26617        0.19409       -2.08318
C          1.78053       -0.22093        0.21892
C          2.33148       -0.22499       -1.23164
H          1.82209       -0.97956       -1.86543
H          3.41759       -0.45994       -1.23650
H          2.19164        0.76665       -1.70971
C          1.98960       -1.61940        0.85484
H          1.47254       -2.41610        0.28167
H          3.07046       -1.87541        0.88468
H          1.60167       -1.64843        1.89451
C          2.58503        0.80995        1.03885
H          2.25573        0.84501        2.09842
H          2.49847        1.83362        0.61887
H          3.66152        0.53898        1.03487
H         -2.04254        2.39116        1.30717
H         -2.64771       -1.14815       -1.13218
H         -0.24614       -1.61903       -1.04249
H          0.35464        1.91961        1.39839
