14
1,4-DIBROMOBUTANE.gamout	Energy:   -5305.3641744
Br        87.01369       -0.09196        0.00010
C         85.30250        0.89011       -0.00010
C         85.50420        2.40154        0.00010
C         84.14965        3.14829       -0.00009
C         84.35132        4.65971        0.00012
Br        82.64012        5.64174       -0.00010
H         84.75969        0.54247       -0.90069
H         84.75934        0.54229        0.90021
H         86.09779        2.69999        0.89172
H         86.09815        2.70016       -0.89122
H         83.55606        2.84986       -0.89172
H         83.55569        2.84967        0.89122
H         84.89409        5.00737        0.90073
H         84.89447        5.00758       -0.90017
