18
1,4-NAPHTHOQUINONE.gamout	Energy:    -534.7308880
C          3.87341        4.41637        2.05181
O          4.60312        5.40986        2.08144
C          3.98503        3.31095        3.05945
C          2.83085        4.26427        0.99889
C          3.13044        2.17840        2.99866
C          4.95275        3.40310        4.07836
C          2.01317        3.18218        0.93933
C          2.09356        2.06260        1.92135
C          3.25678        1.15455        3.95857
C          5.07232        2.37933        5.03024
O          1.33472        1.09508        1.83627
C          4.22413        1.25490        4.97028
H          2.76867        5.09040        0.27143
H          5.59907        4.29432        4.09707
H          1.24140        3.06919        0.16032
H          2.57997        0.28878        3.88658
H          5.83088        2.45549        5.82532
H          4.32148        0.45338        5.71967
