12
1,4-BUTANOLIDE.gamout	Energy:    -306.2700731
O          0.02927       -1.12164       -0.05289
O          2.01433       -0.02967       -0.05059
C         -1.47677        0.70556       -0.24812
C         -0.10894        1.22422        0.20877
C         -1.36769       -0.79273        0.09348
C          0.81031        0.01025        0.02029
H         -2.34252        1.19361        0.24153
H         -1.58924        0.83711       -1.34512
H         -0.10115        1.48475        1.29105
H          0.28608        2.09882       -0.34221
H         -1.67566       -1.00379        1.14318
H         -1.94777       -1.45431       -0.58020
