12
1,4-DICHLORO-CIS-2-BUTENE.gamout	Energy:   -1076.0907607
C          1.47771        0.63568        0.52938
C         -1.47771        0.63568       -0.52938
C         -0.63967       -0.56252       -0.22125
C          0.63967       -0.56252        0.22125
Cl         2.84694        0.80385       -0.67688
Cl        -2.84694        0.80385        0.67688
H          0.91466        1.58705        0.50734
H          1.96613        0.53924        1.51927
H         -0.91466        1.58705       -0.50734
H         -1.96613        0.53924       -1.51927
H         -1.13571       -1.53712       -0.37400
H          1.13571       -1.53711        0.37399
