17
1,5-DICHLOROPENTANE.gamout	Energy:   -1116.6059900
Cl        -0.03047       -0.08783       -0.00008
C          1.54083        0.82015        0.00012
C          1.32149        2.33033       -0.00014
C          2.64712        3.11359        0.00008
C          2.43582        4.63761       -0.00015
C          3.75298        5.40910        0.00011
Cl         3.47688        7.20283       -0.00008
H          2.09806        0.48581        0.89854
H          2.09845        0.48556       -0.89797
H          0.71687        2.60855       -0.89078
H          0.71647        2.60877        0.89016
H          3.25023        2.82031        0.89000
H          3.25069        2.82008       -0.88946
H          1.84294        4.94026       -0.89069
H          1.84249        4.94045        0.89002
H          4.36235        5.18302        0.89863
H          4.36279        5.18288       -0.89807
