18
1-BROMONAPHTHALENE.gamout	Energy:   -2959.1277081
Br        -2.18462       -0.36340       -0.00003
C         -0.50839        0.56870        0.00002
C         -0.53707        1.95808       -0.00035
C          0.68137        2.69050       -0.00033
C          1.90007        2.02785        0.00006
C          1.95405        0.60087        0.00024
C          3.19993       -0.09908       -0.00009
C          3.24472       -1.48635       -0.00050
C          2.03637       -2.23669       -0.00033
C          0.80559       -1.59266        0.00030
C          0.72318       -0.16719        0.00163
H         -1.50142        2.48716       -0.00078
H          0.64442        3.79127       -0.00052
H          2.84506        2.59446       -0.00003
H          4.13116        0.49052       -0.00022
H          4.21480       -2.00811       -0.00096
H          2.07588       -3.33749       -0.00083
H         -0.12809       -2.17502        0.00071
