17
1-BROMOPENTANE.gamout	Energy:   -2771.1300098
Br        -2.03157        0.08616        0.00000
C         -0.24715       -0.77430       -0.00000
C          0.88518        0.24580       -0.00000
C          2.27109       -0.42603       -0.00000
C          3.43276        0.58253       -0.00000
C          4.81676       -0.07740        0.00000
H         -0.23480       -1.41815        0.90059
H         -0.23480       -1.41815       -0.90060
H          0.78388        0.90511       -0.88961
H          0.78388        0.90511        0.88961
H          2.36356       -1.09238        0.88846
H          2.36356       -1.09238       -0.88846
H          3.33332        1.24848       -0.88686
H          3.33332        1.24848        0.88686
H          5.62862        0.67915        0.00000
H          4.96048       -0.72035        0.89466
H          4.96048       -0.72035       -0.89465
