29
1-BROMONONANE.gamout	Energy:   -2928.2609316
C          3.49183        0.53167        0.00005
C          4.81303       -0.25416        0.00032
C          4.61731       -1.77850        0.00007
C          3.66784        2.05770        0.00024
C          5.93950       -2.57108        0.00023
C          2.34035        2.83275       -0.00012
C          5.69253       -4.07522       -0.00009
C          2.50501        4.36070        0.00003
Br         7.37149       -5.11780        0.00002
C          1.17300        5.12160       -0.00036
H          2.88826        0.23042       -0.88724
H          2.88776        0.23025        0.88694
H          5.41815        0.04113        0.88805
H          5.41862        0.04135       -0.88701
H          4.01156       -2.07168       -0.88804
H          4.01117       -2.07193        0.88784
H          4.27002        2.36106        0.88773
H          4.27055        2.36121       -0.88685
H          6.54471       -2.29251        0.89053
H          6.54507       -2.29221       -0.88975
H          1.73864        2.52696       -0.88742
H          1.73807        2.52684        0.88675
H          5.13800       -4.40608       -0.90005
H          5.13766       -4.40641        0.89954
H          3.10722        4.66344        0.88690
H          3.10779        4.66355       -0.88640
H          1.32694        6.22068       -0.00024
H          0.56356        4.86969       -0.89477
H          0.56293        4.86958        0.89359
