12
1-BUTENE.gamout	Energy:    -157.0927494
C          3.63979        0.71714        1.14728
C          2.61682        1.49416        0.74711
C          4.03517       -0.61135        0.52922
C          5.24609       -1.26489        1.20394
H          4.25723        1.06069        1.99987
H          2.39076        2.44901        1.24758
H          1.96439        1.20842       -0.09671
H          3.16450       -1.30523        0.56534
H          4.24313       -0.46374       -0.55517
H          6.14279       -0.61184        1.14546
H          5.50646       -2.23278        0.72894
H          5.05135       -1.46305        2.27957
