23
1-CHLOROHEPTANE.gamout	Energy:    -735.6746018
C         -0.04295       -0.12185        0.00022
C          1.25157        0.70001       -0.00011
C          1.01912        2.21904        0.00007
C          2.31399        3.04654       -0.00019
C          2.07897        4.56512        0.00002
C          3.38074        5.38589       -0.00017
C          3.11806        6.88888        0.00009
Cl         4.66029        7.84932       -0.00014
H          0.16318       -1.21245        0.00010
H         -0.66506        0.09831        0.89451
H         -0.66559        0.09840       -0.89369
H          1.86712        0.42531       -0.88701
H          1.86764        0.42518        0.88639
H          0.40476        2.49790        0.88765
H          0.40428        2.49805       -0.88714
H          2.92822        2.76956       -0.88780
H          2.92867        2.76940        0.88707
H          1.46574        4.84257        0.88833
H          1.46534        4.84276       -0.88795
H          3.99540        5.12683       -0.89005
H          3.99579        5.12660        0.88938
H          2.55046        7.20624        0.89805
H          2.55002        7.20648       -0.89750
