20
1-CHLOROHEXANE.gamout	Energy:    -696.3920133
C         -0.02453       -0.06525       -0.04077
C          1.51146       -0.02547       -0.04080
C          2.07888        1.40459       -0.04094
C         -0.61420       -1.48439       -0.04070
C          3.60322        1.43155       -0.04087
C         -2.14782       -1.50773       -0.03983
Cl         4.24813        3.13207       -0.04355
H         -0.40403        0.49165        0.84713
H         -0.40406        0.49157       -0.92870
H          1.89304       -0.57948        0.84795
H          1.89304       -0.57961       -0.92947
H          1.70983        1.96209        0.84805
H          1.70996        1.96193       -0.93008
H         -0.23276       -2.04012        0.84632
H         -0.23377       -2.03977       -0.92836
H          4.02445        0.93588        0.85722
H          4.02457        0.93291       -0.93726
H         -2.55990       -0.99490        0.85565
H         -2.54270       -2.54491       -0.04041
H         -2.56093       -0.99350       -0.93403
