28
1-DECYNE.gamout	Energy:    -391.5421075
C          7.20215        0.76969        0.93160
C          5.93319        1.63574        0.94694
C          4.62810        0.82544        0.95725
C          8.50446        1.58195        0.92375
C          3.35743        1.68875        0.97347
C          9.76857        0.69078        0.90777
C          2.05187        0.87832        0.98501
C         11.02601        1.44067        0.90092
C          0.78781        1.74629        1.00263
C         12.06742        2.08362        0.89507
H          7.17947        0.09954        0.04098
H          7.19548        0.09215        1.81693
H          5.93971        2.31278        0.06153
H          5.95741        2.30641        1.83684
H          4.62330        0.14843        1.84302
H          4.60497        0.15397        0.06760
H          8.54404        2.24619        1.81504
H          8.52790        2.25517        0.03861
H          3.36151        2.36634        0.08796
H          3.38071        2.36020        1.86331
H          9.73983        0.02102        0.01747
H          9.75586        0.01169        1.79140
H          2.05080        0.20150        1.86993
H          2.03056        0.20753        0.09580
H          0.73632        2.40768        0.11105
H         -0.13462        1.12903        1.01164
H          0.75762        2.40161        1.89966
H         12.99027        2.64673        0.88998
