33
1-DECANOL.gamout	Energy:    -469.1804180
C          3.91718        4.03698        3.38240
C          5.31706        3.64787        2.88447
C          5.38243        3.30747        1.38780
C          3.86860        4.40116        4.87433
C          6.78429        2.90204        0.90807
C          2.46900        4.77224        5.38640
C          6.86373        2.58667       -0.59145
C          2.42996        5.15535        6.87433
C          8.25926        2.17252       -1.05101
C          1.02762        5.50965        7.38403
O          8.21867        1.91540       -2.44855
H          3.20965        3.19832        3.18452
H          3.53591        4.89504        2.78112
H          5.68761        2.77759        3.47507
H          6.02797        4.47889        3.10215
H          5.02808        4.18204        0.79432
H          4.66426        2.48524        1.16268
H          4.56739        5.24833        5.06762
H          4.26389        3.54728        5.47272
H          7.50280        3.71852        1.15386
H          7.12724        2.01647        1.49262
H          1.77408        3.91812        5.20966
H          2.06408        5.61532        4.77905
H          6.15392        1.77097       -0.85568
H          6.54939        3.47082       -1.19015
H          3.11794        6.01432        7.04809
H          2.84486        4.31502        7.47698
H          8.98720        2.98693       -0.79833
H          8.58729        1.27074       -0.47114
H          1.03832        5.78586        8.45905
H          0.59688        6.36754        6.82399
H          0.32638        4.65557        7.26653
H          9.11508        1.65447       -2.72743
