69
1-DOCOSANOL.gamout	Energy:    -940.5741287
O        -11.56829        8.59811       -0.00000
C         -0.57749       -0.09383        0.00001
C          0.95545       -0.18008        0.00001
C         -1.12407        1.34272        0.00001
C          1.50372       -1.61597        0.00001
C         -2.65727        1.42487        0.00000
C          3.03713       -1.69480        0.00001
C         -3.21286        2.85786        0.00000
C          3.59684       -3.12613        0.00000
C         -4.74688        2.92561        0.00000
C          5.13115       -3.18913        0.00000
C         -5.31907        4.35186       -0.00000
C          5.70762       -4.61357        0.00000
C         -6.85405        4.39920       -0.00000
C          7.24282       -4.65763        0.00000
C         -7.44550        5.81709       -0.00000
C          7.83620       -6.07488       -0.00000
C         -8.98141        5.84123       -0.00000
C          9.37183       -6.10294       -0.00000
C         -9.58647        7.25139       -0.00000
C          9.97791       -7.51511       -0.00001
C        -11.11275        7.25157       -0.00000
C         11.51159       -7.52450       -0.00001
H         -0.97592       -0.63894        0.88737
H         -0.97592       -0.63894       -0.88736
H          1.35358        0.36533       -0.88731
H          1.35358        0.36533        0.88732
H         -0.72656        1.88825        0.88749
H         -0.72656        1.88825       -0.88748
H          1.10721       -2.16216       -0.88751
H          1.10721       -2.16216        0.88753
H         -3.05324        0.87766       -0.88720
H         -3.05324        0.87766        0.88721
H          3.43167       -1.14651       -0.88716
H          3.43167       -1.14651        0.88717
H         -2.82006        3.40653       -0.88759
H         -2.82007        3.40653        0.88759
H          3.20576       -3.67604        0.88760
H          3.20576       -3.67604       -0.88760
H         -5.13685        2.37393       -0.88710
H         -5.13685        2.37394        0.88710
H          5.51934       -2.63621        0.88709
H          5.51934       -2.63621       -0.88708
H         -4.93360        4.90554       -0.88761
H         -4.93360        4.90555        0.88761
H          5.32349       -5.16834        0.88759
H          5.32349       -5.16833       -0.88759
H         -7.23610        3.84202       -0.88711
H         -7.23610        3.84202        0.88710
H          7.62392       -4.09988       -0.88709
H          7.62392       -4.09989        0.88709
H         -7.06935        6.37671       -0.88756
H         -7.06935        6.37671        0.88756
H          7.45836       -6.63402       -0.88757
H          7.45837       -6.63403        0.88756
H         -9.35269        5.27760       -0.88757
H         -9.35269        5.27760        0.88757
H          9.74826       -5.54201        0.88728
H          9.74826       -5.54201       -0.88729
H         -9.23845        7.82338       -0.88910
H         -9.23845        7.82338        0.88910
H          9.60191       -8.07511       -0.88683
H          9.60191       -8.07511        0.88681
H        -11.48015        6.68701        0.89635
H        -11.48015        6.68700       -0.89635
H         11.91746       -8.55761       -0.00001
H         11.91907       -7.00614       -0.89463
H         11.91907       -7.00615        0.89461
H        -12.54213        8.58023       -0.00000
