39
1-DODECANOL.gamout	Energy:    -547.7461008
C          6.36106       -0.46417       -0.00000
C          5.08745        0.37810       -0.00000
C          3.80026       -0.45673        0.00000
C          2.51520        0.38571        0.00000
C          1.22565       -0.44909        0.00000
C         -0.06217        0.38874        0.00001
C         -1.35030       -0.44869        0.00000
C         -2.63981        0.38655        0.00000
C         -3.92661       -0.45297        0.00000
C         -5.21746        0.37987        0.00000
C         -6.50380       -0.46128       -0.00000
C         -7.78891        0.37616       -0.00001
O          7.48038        0.41164       -0.00001
H          6.35884       -1.13739        0.89647
H          6.35884       -1.13740       -0.89648
H          5.11510        1.04716        0.88899
H          5.11510        1.04716       -0.88900
H          3.79420       -1.13081       -0.88810
H          3.79420       -1.13081        0.88810
H          2.51834        1.05990        0.88756
H          2.51834        1.05990       -0.88755
H          1.22465       -1.12382       -0.88759
H          1.22465       -1.12382        0.88760
H         -0.06196        1.06333        0.88757
H         -0.06196        1.06333       -0.88756
H         -1.34972       -1.12343       -0.88754
H         -1.34972       -1.12343        0.88754
H         -2.64083        1.06118        0.88758
H         -2.64083        1.06118       -0.88757
H         -3.92478       -1.12767       -0.88761
H         -3.92479       -1.12767        0.88760
H         -5.22028        1.05467        0.88771
H         -5.22027        1.05467       -0.88771
H         -6.49848       -1.13547       -0.88696
H         -6.49848       -1.13547        0.88695
H         -7.84453        1.03297        0.89464
H         -7.84452        1.03297       -0.89465
H         -8.69572       -0.26401       -0.00001
H          8.28595       -0.13619       -0.00001
