60
1-EICOSENE.gamout	Energy:    -785.6116476
C          6.76585        5.97451        3.76457
C          5.52083        6.30359        2.92650
C          4.79956        5.06839        2.36566
C          7.47465        7.20817        4.34362
C          3.57942        5.40850        1.49365
C          8.73611        6.87957        5.15741
C          2.85253        4.19734        0.88034
C          9.43713        8.11109        5.75063
C          2.11032        3.30115        1.88662
C         10.70714        7.77442        6.54946
C          1.36973        2.13079        1.21744
C         11.47362        8.99453        7.09729
C          0.50164        1.24944        2.13626
C         10.72637        9.86409        8.12847
C          1.25711        0.45324        3.22774
C         10.36840        9.13739        9.44412
C          1.39251        1.13444        4.60626
C          9.65134       10.01889       10.43338
C          0.07234        1.25716        5.38101
C         10.08530       10.32809       11.66918
H          7.48669        5.39551        3.14120
H          6.47931        5.29110        4.59732
H          5.80701        6.97432        2.08336
H          4.80813        6.89622        3.54645
H          5.51951        4.46261        1.76686
H          4.49207        4.41408        3.21261
H          7.74023        7.90236        3.51297
H          6.76149        7.77536        4.98640
H          2.85509        6.00786        2.09351
H          3.90685        6.08154        0.66858
H          9.45522        6.32209        4.51281
H          8.47009        6.17642        5.98044
H          3.58451        3.57942        0.30964
H          2.11997        4.56245        0.12542
H          9.69531        8.81967        4.92951
H          8.71663        8.65952        6.39978
H          1.38138        3.92105        2.45929
H          2.83022        2.90770        2.63732
H         10.44445        7.08413        7.38341
H         11.39724        7.19211        5.89737
H          2.11496        1.48538        0.69555
H          0.72094        2.54049        0.40911
H         12.42682        8.64160        7.55266
H         11.77045        9.64265        6.24192
H         -0.04822        0.53327        1.48704
H         -0.29077        1.87722        2.60530
H         11.35498       10.74875        8.37121
H          9.79698       10.27692        7.67430
H          2.27104        0.19376        2.84574
H          0.74628       -0.52446        3.38113
H         11.29137        8.72240        9.90752
H          9.71856        8.26292        9.20777
H          1.84878        2.14211        4.49008
H          2.11515        0.55047        5.21925
H          8.68893       10.44371       10.08577
H          0.22448        1.74093        6.36838
H         -0.67900        1.86309        4.83130
H         -0.37945        0.25812        5.56329
H          9.50580       10.98280       12.34033
H         11.03817        9.93135       12.06161
