58
1-EICOSYNE.gamout	Energy:    -784.3699513
C        174.14009        9.99061        0.00129
C        172.82990        9.18684        0.00075
C        173.01967        7.66230        0.00116
C        173.92700       11.51206        0.00081
C        171.69634        6.88016        0.00041
C        175.22609       12.33338        0.00110
C        171.85965        5.35254        0.00079
C        174.99470       13.85212        0.00053
C        170.52297        4.59355       -0.00014
C        176.28579       14.68582        0.00054
C        170.66044        3.06337        0.00028
C        176.04016       16.20220       -0.00013
C        169.31224        2.32533       -0.00074
C        177.32660       17.04047       -0.00031
C        169.42811        0.79357       -0.00032
C        177.04825       18.56158       -0.00111
C        168.07147        0.07005       -0.00143
C        178.25493       19.39069       -0.00136
C        168.18408       -1.45936       -0.00097
C        179.27293       20.06992       -0.00161
H        174.74943        9.70166        0.88883
H        174.75033        9.70124       -0.88550
H        172.22250        9.48080       -0.88653
H        172.22148        9.48116        0.88723
H        173.62395        7.36339        0.88880
H        173.62510        7.36307       -0.88560
H        173.31527       11.79681       -0.88655
H        173.31450       11.79729        0.88749
H        171.09414        7.18470       -0.88681
H        171.09293        7.18502        0.88670
H        175.83940       12.05263        0.88857
H        175.84003       12.05210       -0.88577
H        172.45839        5.04309        0.88854
H        172.45976        5.04279       -0.88595
H        174.37990       14.12990       -0.88695
H        174.37937       14.13054        0.88744
H        169.92621        4.90849       -0.88740
H        169.92477        4.90884        0.88604
H        176.90177       14.41165        0.88803
H        176.90214       14.41093       -0.88646
H        171.25407        2.74442        0.88815
H        171.25558        2.74406       -0.88643
H        175.42347       16.47500       -0.88791
H        175.42315       16.47577        0.88719
H        168.72031        2.64903       -0.88815
H        168.71877        2.64940        0.88551
H        177.94619       16.78644        0.88794
H        177.94643       16.78555       -0.88814
H        170.01774        0.46655        0.88758
H        170.01934        0.46619       -0.88703
H        176.42641       18.82462       -0.88797
H        176.42611       18.82551        0.88527
H        167.48513        0.40174       -0.88870
H        167.48345        0.40217        0.88457
H        167.18533       -1.94342       -0.00181
H        168.73141       -1.82593        0.89402
H        168.73311       -1.82635       -0.89474
H        180.16931       20.67452       -0.00182
