19
1-ETHYLCYCLOPENTENE.gamout	Energy:    -273.7487702
C          1.04310        3.33722        1.02461
C          1.62580        2.25220        1.95213
C          3.09978        2.00358        1.76048
C          4.15755        3.04271        2.11074
C          3.68408        0.86293        1.32399
C          5.45980        2.47104        1.48943
C          5.19438        0.95073        1.30384
H          1.53757        4.31983        1.17451
H         -0.04162        3.48126        1.21117
H          1.17024        3.05944       -0.04264
H          1.44591        2.55212        3.01169
H          1.07127        1.30088        1.80065
H          4.23037        3.14465        3.22080
H          3.91328        4.05893        1.73034
H          3.12991       -0.05195        1.05539
H          6.36058        2.68182        2.10159
H          5.62739        2.93894        0.49613
H          5.64233        0.54907        0.36795
H          5.63407        0.34561        2.13347
