22
1-ETHYLCYCLOHEXENE.gamout	Energy:    -313.0386697
C          4.35060        0.96988        2.46404
C          5.77959        1.06401        1.90509
C          6.28865        2.51244        1.94980
C          3.42321        2.05436        1.93834
C          3.91454        3.15495        1.31949
C          1.94422        1.80758        2.16895
C          5.38627        3.42958        1.10686
C          0.97442        2.90529        1.72427
H          4.37165        1.02658        3.57977
H          3.91104       -0.02878        2.23742
H          5.78724        0.70698        0.84981
H          6.45765        0.38877        2.46992
H          7.34042        2.57320        1.59683
H          6.28825        2.86565        3.00615
H          3.21300        3.91505        0.93464
H          1.67319        0.84653        1.66915
H          1.79716        1.60072        3.25652
H          5.60254        4.49851        1.33152
H          5.62770        3.31118        0.02216
H          1.18243        3.86732        2.23800
H          1.03571        3.09004        0.63124
H         -0.07383        2.62344        1.95391
