24
1-ETHYLNAPHTHALENE.gamout	Energy:    -464.1767829
C          5.47192        4.42091        2.14079
C          6.27370        4.65303        0.84420
C          3.96520        4.45217        1.95165
C          3.25263        5.61096        2.26237
C          1.84805        5.70751        2.06785
C          1.13964        4.62841        1.56170
C          1.81207        3.41168        1.23548
C          1.10010        2.28252        0.72505
C          1.75677        1.10131        0.40893
C          3.16320        1.00202        0.59495
C          3.88506        2.08096        1.09091
C          3.24596        3.31654        1.42584
H          5.74875        5.20286        2.87993
H          5.77881        3.45558        2.60059
H          6.05316        3.88052        0.07889
H          7.36562        4.63174        1.04317
H          6.02733        5.63782        0.39565
H          3.79744        6.47910        2.66990
H          1.32841        6.64580        2.31949
H          0.04961        4.69038        1.41018
H          0.00939        2.36792        0.58865
H          1.19277        0.23877        0.01976
H          3.68249        0.06358        0.34300
H          4.97160        1.98107        1.23184
