21
1-HEXANETHIOL.gamout	Energy:    -634.9982870
C         35.00470       10.03086       -0.00013
C         36.30460        9.21062        0.00008
C         36.07535        7.69033       -0.00015
C         35.23172       11.55068        0.00013
C         37.38493        6.89404        0.00009
C         33.93435       12.36805       -0.00008
S         37.01802        5.08062       -0.00018
H         34.39253        9.74846       -0.88779
H         34.39210        9.74822        0.88717
H         36.91573        9.49230        0.88852
H         36.91617        9.49252       -0.88799
H         35.47149        7.40184       -0.89000
H         35.47107        7.40166        0.88936
H         35.84604       11.82760        0.88728
H         35.84651       11.82782       -0.88661
H         37.98773        7.14530        0.89853
H         37.98818        7.14549       -0.89800
H         34.13666       13.45938        0.00008
H         33.31301       12.14552       -0.89428
H         33.31259       12.14533        0.89378
H         38.31682        4.66558        0.00015
