49
1-HEPTADECYNE.gamout	Energy:    -666.5193761
C         -0.38725        3.38499        3.77626
C          1.10049        3.01445        3.73371
C          2.00725        4.01348        4.46917
C          3.49955        3.64843        4.43460
C          4.39851        4.65759        5.16788
C          7.87060        2.86808        5.91024
C          6.34720        3.08154        5.83704
C          8.56134        2.60709        4.56092
C          5.90825        4.36016        5.10191
C         12.26957        1.76845        3.47315
C         10.76629        2.05598        3.34436
C         12.96823        1.49537        2.13179
C         10.06632        2.32533        4.68581
C         15.15202        0.93241        0.90410
C         14.46924        1.20487        2.26529
C         16.58583        0.65315        1.00204
C         17.78329        0.42150        1.10173
H         -0.76364        3.43318        4.82094
H         -1.01098        2.64488        3.23285
H         -0.57075        4.37878        3.31435
H          1.43393        2.93264        2.67370
H          1.24443        1.99961        4.17001
H          1.86688        5.02922        4.03111
H          1.67503        4.09960        5.53025
H          3.83371        3.56425        3.37383
H          3.63162        2.63271        4.87140
H          4.08324        4.71936        6.23593
H          4.21514        5.67124        4.74459
H          8.07750        2.00868        6.58807
H          8.34330        3.75294        6.39729
H          5.88156        2.18933        5.35931
H          5.94166        3.11100        6.87420
H          8.41247        3.47683        3.88151
H          8.06562        1.74453        4.05711
H          6.46184        5.22439        5.53531
H          6.22038        4.30892        4.03371
H         12.41977        0.89589        4.15031
H         12.76846        2.62733        3.97879
H         10.61540        2.92899        2.66758
H         10.26935        1.19668        2.83697
H         12.46906        0.63652        1.62580
H         12.82013        2.36818        1.45412
H         10.22135        1.45348        5.36331
H         10.56194        3.18626        5.19171
H         14.99835        1.80605        0.22921
H         14.64664        0.07604        0.40095
H         14.62836        0.32733        2.93019
H         14.98056        2.05973        2.76017
H         18.84162        0.21635        1.18445
