24
1-HEPTANOL.gamout	Energy:    -351.3322156
C          3.14318       -0.53023        0.00000
C          1.89513        0.34957       -0.00000
C          0.58291       -0.44543        0.00000
C         -0.67479        0.43774        0.00000
C         -1.99184       -0.35248       -0.00000
C         -3.24972        0.53106        0.00000
C         -4.56228       -0.26274       -0.00000
O          4.28772        0.31258       -0.00000
H          3.12121       -1.20266        0.89677
H          3.12120       -1.20267       -0.89676
H          1.94291        1.01757        0.88895
H          1.94291        1.01757       -0.88895
H          0.55563       -1.11885       -0.88819
H          0.55563       -1.11885        0.88820
H         -0.64899        1.11145        0.88762
H         -0.64899        1.11145       -0.88761
H         -2.01741       -1.02666       -0.88789
H         -2.01741       -1.02667        0.88789
H         -3.22115        1.20459        0.88697
H         -3.22115        1.20459       -0.88697
H         -4.64024       -0.91712       -0.89472
H         -4.64024       -0.91712        0.89472
H         -5.44650        0.40837        0.00000
H          5.07682       -0.25878       -0.00000
