19
1-HEXANAL.gamout	Energy:    -310.8453856
C          2.61567        0.20644       -0.28924
C          1.30497       -0.55234       -0.22208
C          0.08275        0.37789       -0.09071
C         -1.25633       -0.37450       -0.05648
C         -2.47999        0.54495        0.07766
C         -3.81357       -0.21203        0.11307
O          3.57319        0.02095        0.43595
H          2.64743        1.00731       -1.09700
H          1.21754       -1.13772       -1.16893
H          1.36783       -1.27859        0.61559
H          0.18663        0.99164        0.83261
H          0.07671        1.10346       -0.93689
H         -1.35505       -0.99185       -0.97963
H         -1.24632       -1.10198        0.78803
H         -2.37438        1.16098        0.99975
H         -2.48573        1.27234       -0.76644
H         -4.67508        0.48033        0.21088
H         -3.96636       -0.80687       -0.81297
H         -3.85482       -0.91923        0.96931
