11
1-IODOPROPANE.gamout	Energy:    -416.2791698
C          0.14314        0.32250        0.71108
C          1.67996        0.24416        0.71109
C          2.30174        1.63462        0.71111
I          4.49608        1.59127        0.71130
H         -0.29948       -0.69441        0.71090
H         -0.24008        0.85432       -0.18554
H         -0.24005        0.85399        1.60790
H          2.02975       -0.32145       -0.17928
H          2.02972       -0.32146        1.60147
H          2.03938        2.22097        1.61232
H          2.03966        2.22090       -0.19022
