22
1-METHYL-4-ISOPROPENYLBENZENE.gamout	Energy:    -387.9890467
C          5.58528        5.60009        2.06804
C          5.71390        4.12163        1.76378
C          6.93600        3.54009        1.67654
C          4.45574        3.34080        1.58133
C          3.23918        3.75357        2.17550
C          4.42060        2.15777        0.79946
C          2.05863        3.00930        2.02065
C          3.24151        1.41963        0.64524
C          2.03151        1.82696        1.25351
C          0.75794        1.03579        1.05864
H          5.13485        5.77321        3.06983
H          6.57600        6.09564        2.06102
H          4.93068        6.11235        1.33073
H          7.85706        4.13382        1.79196
H          7.05981        2.45899        1.50858
H          3.21101        4.66676        2.78944
H          5.33468        1.82449        0.28363
H          1.13372        3.35779        2.50986
H          3.25507        0.50687        0.02596
H         -0.02782        1.34069        1.77872
H          0.34467        1.18055        0.03595
H          0.93201       -0.05350        1.18425
