21
1-METHYLNAPHTHALENE.gamout	Energy:    -424.8956787
C          2.04949        1.20446        3.71414
C          0.60666        0.82977        3.46515
C          2.73921        2.11140        2.82866
C          2.73966        0.67923        4.80565
C          4.12171        2.45080        3.09477
C          2.10947        2.69717        1.68590
C          4.09736        1.01171        5.06749
C          4.77760        1.88100        4.22905
C          4.79889        3.34932        2.21427
C          2.79743        3.56826        0.84930
C          4.15475        3.89877        1.11391
H         -0.05933        1.71957        3.47884
H          0.47114        0.34352        2.47470
H          0.24064        0.12480        4.23756
H          2.21801       -0.01435        5.48608
H          1.05947        2.45383        1.46405
H          4.60231        0.57177        5.94226
H          5.82992        2.14491        4.42355
H          5.85119        3.59996        2.42745
H          2.29055        4.00704       -0.02505
H          4.69069        4.58997        0.44414
