24
1-METHYL-4-PROPYLBENZENE.gamout	Energy:    -389.2148147
C          1.87600        4.79846        1.51785
C          0.86229        5.90984        1.81561
C          3.16774        4.91164        2.35948
C          4.17613        3.81710        2.07126
C          5.13733        3.95662        1.04678
C          6.04766        2.92777        0.75813
C          6.03388        1.71396        1.47908
C          6.99554        0.59396        1.14899
C          5.07580        1.57617        2.50694
C          4.16623        2.60551        2.79577
H          1.41438        3.80312        1.70347
H          2.14650        4.81180        0.43832
H          0.54963        5.89981        2.88209
H          1.28803        6.91488        1.60678
H         -0.05456        5.80235        1.19926
H          3.63256        5.90563        2.17349
H          2.89528        4.89069        3.43840
H          5.17989        4.89593        0.46983
H          6.79244        3.07148       -0.04260
H          7.23940       -0.01329        2.04465
H          6.56284       -0.09898        0.39318
H          7.94664        0.98010        0.72848
H          5.04670        0.64514        3.09760
H          3.43454        2.47054        3.61020
