24
1-METHYL-1-ETHYLCYCLOPENTANE.gamout	Energy:    -314.2506043
C          1.72973        1.77694        1.27867
C          0.78054        0.94994        2.15651
C          2.98326        2.35767        1.97876
C          2.57760        3.32827        3.11119
C          3.94463        1.25770        2.51434
C          3.90614        3.08446        0.95897
C          5.33944        1.92640        2.61586
C          5.31549        3.11377        1.60177
H          1.16301        2.61886        0.81772
H          2.07641        1.14484        0.42874
H          1.29743        0.08495        2.62388
H          0.33073        1.54952        2.97581
H         -0.06004        0.54243        1.55631
H          2.02980        2.80517        3.92265
H          3.45869        3.81718        3.57677
H          1.91909        4.13572        2.72368
H          3.97304        0.42326        1.77781
H          3.60963        0.82213        3.47947
H          3.52930        4.09620        0.69480
H          3.92996        2.49465        0.01574
H          6.15237        1.20292        2.39779
H          5.52436        2.29570        3.64643
H          5.49325        4.07791        2.12307
H          6.11371        3.02592        0.83616
