24
1-METHYL-3-PROPYLBENZENE.gamout	Energy:    -389.2146767
C          1.77923        4.74074        1.93470
C          0.65018        5.71744        1.58650
C          2.60512        4.29541        0.70628
C          3.72211        3.33028        1.05346
C          3.49776        1.93711        1.07800
C          4.53000        1.05518        1.43865
C          5.79875        1.54992        1.78037
C          6.05571        2.93862        1.76729
C          7.41382        3.48112        2.15585
C          5.00558        3.80555        1.39897
H          1.35959        3.83676        2.42991
H          2.46570        5.20114        2.67989
H          0.07609        6.01517        2.48851
H         -0.06813        5.26751        0.86772
H          1.04200        6.64707        1.12012
H          3.02970        5.19740        0.21167
H          1.92219        3.82527       -0.03602
H          2.50591        1.54104        0.80301
H          4.34602       -0.03136        1.44552
H          6.60466        0.84923        2.05542
H          8.23611        2.83876        1.77813
H          7.52505        3.53096        3.26186
H          7.57243        4.50622        1.76436
H          5.19604        4.89301        1.37362
