45
1-N-NONYLNAPHTHALENE.gamout	Energy:    -739.1566956
C          1.40380       -0.96447        0.97658
C          2.09512        0.14267        1.47080
C          1.76603        1.47046        1.08583
C          0.72801        1.70056        0.19533
C         -0.02030        0.60842       -0.33945
C         -1.09932        0.82284       -1.25214
C         -1.82716       -0.24074       -1.76769
C         -1.50235       -1.57126       -1.38563
C         -0.45835       -1.81410       -0.50076
C          0.31703       -0.74573        0.05125
C          1.82679       -2.36244        1.38634
C          2.72770       -3.07409        0.35133
C          3.12842       -4.49846        0.76433
C          4.03291       -5.20666       -0.25550
C          4.41837       -6.64118        0.13846
C          5.31828       -7.34703       -0.88697
C          5.69510       -8.78682       -0.50498
C          6.59072       -9.49228       -1.53535
C          6.95810      -10.93092       -1.15085
H          2.92062       -0.02043        2.18389
H          2.33890        2.31490        1.50121
H          0.46425        2.72648       -0.10941
H         -1.34578        1.85818       -1.54010
H         -2.65646       -0.05733       -2.46930
H         -2.08267       -2.41478       -1.79247
H         -0.22675       -2.85181       -0.21778
H          0.93244       -2.99440        1.58487
H          2.37121       -2.30357        2.35372
H          3.64028       -2.45878        0.18444
H          2.20732       -3.10475       -0.63197
H          2.20754       -5.10698        0.92256
H          3.63786       -4.46947        1.75538
H          4.95832       -4.60493       -0.40993
H          3.52174       -5.22344       -1.24588
H          3.49100       -7.24168        0.28752
H          4.92673       -6.62907        1.13044
H          6.24787       -6.75012       -1.03599
H          4.80736       -7.35222       -1.87781
H          4.76457       -9.38327       -0.35816
H          6.20562       -8.78518        0.48626
H          7.51995       -8.89548       -1.68136
H          6.07780       -9.48953       -2.52427
H          7.50700      -10.96534       -0.18521
H          7.60263      -11.40993       -1.91703
H          6.05161      -11.56327       -1.03569
