54
1-OCTADECENE.gamout	Energy:    -707.0444295
C          8.77243        4.78828        3.40555
C          7.66461        3.81294        3.84477
C          6.28192        4.45118        4.06036
C          9.19234        5.83100        4.45587
C          5.18618        3.46619        4.51536
C         10.34739        6.73269        3.99527
C          4.82254        2.34043        3.52723
C         10.77956        7.77161        5.04424
C          4.23457        2.81841        2.18818
C         11.88689        8.74015        4.59077
C          3.79605        1.67386        1.24965
C         13.25467        8.08938        4.32608
C          2.51699        0.90224        1.65918
C         14.34981        9.10948        3.94786
C          1.20215        1.40749        1.03164
C         15.70387        8.48727        3.72650
C          0.78326        2.83299        1.41499
C         16.40884        8.53320        2.58060
H          8.45199        5.31452        2.47610
H          9.67195        4.19902        3.11559
H          7.97752        3.29480        4.78171
H          7.58390        3.01203        3.07716
H          6.35925        5.25565        4.82454
H          5.96854        4.96716        3.12366
H          9.48655        5.30463        5.39384
H          8.32174        6.46824        4.73199
H          5.50345        3.00332        5.47783
H          4.26404        4.04375        4.75368
H         11.21565        6.09226        3.71924
H         10.05514        7.25819        3.05620
H          5.71550        1.70595        3.32341
H          4.09497        1.66121        4.02570
H         11.11170        7.23984        5.96639
H          9.88803        8.36530        5.34894
H          4.98928        3.43959        1.65620
H          3.37757        3.49953        2.38942
H         11.55443        9.27534        3.67084
H         12.01089        9.52998        5.36581
H          4.64356        0.95634        1.16626
H          3.65810        2.07537        0.21983
H         13.57481        7.52103        5.22996
H         13.17206        7.33730        3.51096
H          2.41596        0.90130        2.76917
H          2.63621       -0.16754        1.38043
H         14.04168        9.67117        3.03796
H         14.42405        9.86403        4.76691
H          0.38733        0.70361        1.31454
H          1.28397        1.33500       -0.07747
H         16.13073        7.94094        4.59062
H          1.50838        3.59246        1.05440
H          0.70086        2.94942        2.51732
H         -0.20427        3.09458        0.97969
H         17.39519        8.05015        2.48657
H         16.02568        9.06314        1.69074
