22
1-OCTYNE.gamout	Energy:    -312.9754998
C          5.46882        1.44576        0.78240
C          4.09530        0.88196        1.18881
C          3.07637        1.92670        1.67454
C          6.30794        1.94330        1.98551
C          1.71960        1.32288        2.07094
C          7.62506        2.46752        1.62072
C          0.68875        2.36432        2.52491
C          8.72371        2.90720        1.30886
H          6.05026        0.66395        0.24880
H          5.33947        2.28115        0.05913
H          3.66348        0.33685        0.31964
H          4.23750        0.11207        1.98239
H          3.48692        2.49177        2.54292
H          2.92626        2.68535        0.87170
H          5.74926        2.73281        2.53681
H          6.43846        1.10609        2.70964
H          1.31363        0.74310        1.21048
H          1.87666        0.57699        2.88314
H          0.47968        3.10252        1.72144
H         -0.27523        1.89086        2.80406
H          1.05007        2.93307        3.40856
H          9.69421        3.29633        1.03411
