27
1-OCTANETHIOL.gamout	Energy:    -713.5638513
C         85.98847       10.03821        0.00007
C         84.69882        9.20267       -0.00014
C         84.94473        7.68601        0.00009
C         85.75122       11.55579       -0.00014
C         83.65318        6.85154       -0.00014
C         87.04426       12.38778        0.00012
C         83.91971        5.34217        0.00011
C         86.80310       13.90183       -0.00004
S         82.31290        4.42637       -0.00027
H         86.60399        9.76201        0.88766
H         86.60446        9.76181       -0.88713
H         84.08258        9.47587       -0.88776
H         84.08220        9.47605        0.88715
H         85.55981        7.41266        0.88849
H         85.56032        7.41244       -0.88790
H         85.13614       11.83340       -0.88772
H         85.13570       11.83356        0.88708
H         83.03734        7.11409       -0.88983
H         83.03692        7.11429        0.88920
H         87.65655       12.10607        0.88716
H         87.65701       12.10596       -0.88658
H         84.50599        5.05356        0.89830
H         84.50655        5.05335       -0.89764
H         87.75651       14.47066        0.00016
H         86.22580       14.22132       -0.89419
H         86.22536       14.22143        0.89378
H         82.84932        3.17248       -0.00002
