48
1-PENTADECANOL.gamout	Energy:    -665.5944802
C        139.00653       10.04276        0.00008
C        137.69720        9.23770       -0.00012
C        137.89918        7.71464        0.00011
C        138.80334       11.56566       -0.00014
C        136.58718        6.91383       -0.00010
C        140.11423       12.36824        0.00005
C        136.78079        5.38974        0.00014
C        139.91676       13.89162       -0.00013
C        135.46306        4.59813       -0.00009
C        141.23310       14.68570        0.00009
C        135.64440        3.07282        0.00011
C        141.03963       16.20809       -0.00011
C        134.32052        2.29005       -0.00015
C        142.35377       16.98629        0.00015
C        134.50282        0.76740        0.00011
O        142.05590       18.37613        0.00003
H        139.61547        9.75197        0.88730
H        139.61585        9.75177       -0.88682
H        137.08840        9.52872       -0.88732
H        137.08800        9.52893        0.88675
H        138.50737        7.42263        0.88742
H        138.50779        7.42241       -0.88684
H        138.19493       11.85706       -0.88743
H        138.19453       11.85727        0.88680
H        135.97963        7.20769       -0.88724
H        135.97920        7.20793        0.88667
H        140.72227       12.07541        0.88726
H        140.72264       12.07524       -0.88684
H        137.38696        5.09386        0.88752
H        137.38739        5.09363       -0.88686
H        139.31082       14.18712       -0.88742
H        139.31045       14.18728        0.88685
H        134.85792        4.89694       -0.88725
H        134.85746        4.89713        0.88669
H        141.83734       14.38647        0.88777
H        141.83776       14.38628       -0.88725
H        136.24813        2.77144        0.88753
H        136.24856        2.77127       -0.88696
H        140.44878       16.52258       -0.88916
H        140.44836       16.52273        0.88861
H        133.71977        2.59556       -0.88703
H        133.71926        2.59580        0.88630
H        142.95590       16.68828        0.89725
H        142.95633       16.68820       -0.89663
H        133.52773        0.23684       -0.00014
H        135.06715        0.42645        0.89453
H        135.06772        0.42622       -0.89388
H        142.90160       18.86011        0.00006
