28
1-PHENYLNAPHTHALENE.gamout	Energy:    -616.4948742
C          3.53316        1.55019        4.91163
C          3.01684        1.24166        3.59694
C          4.88753        1.32616        5.17865
C          2.65470        2.07039        6.00182
C          3.90674        0.65810        2.61264
C          1.66752        1.51227        3.20566
C          5.75771        0.76786        4.20562
C          2.97561        3.26167        6.69442
C          1.50635        1.34718        6.40830
C          5.27474        0.42740        2.95071
C          3.39703        0.33581        1.31751
C          1.20723        1.19509        1.93322
C          2.16935        3.72018        7.75049
C          0.70252        1.80454        7.46417
C          2.07407        0.59067        0.98217
C          1.02903        2.99498        8.13776
H          5.27530        1.55615        6.18397
H          0.98944        1.99399        3.92548
H          6.81436        0.58983        4.46105
H          3.86252        3.83854        6.38720
H          1.25983        0.40208        5.89943
H          5.94025       -0.02073        2.19502
H          4.08112       -0.11666        0.58089
H          0.16443        1.42025        1.65837
H          2.43118        4.65408        8.27317
H         -0.18134        1.22111        7.76786
H          1.69966        0.33642       -0.02207
H          0.39731        3.35438        8.96549
