27
1-PROPYLNAPHTHALENE.gamout	Energy:    -503.4591553
C          1.53274        2.89830        4.83259
C          1.08423        1.73194        5.44095
C          2.92738        3.20501        4.74169
C          2.01051        0.80587        5.99329
C          3.37170        1.07026        5.93000
C          3.86677        2.26026        5.31353
C          5.26604        2.53880        5.25483
C          3.42480        4.41086        4.12171
C          4.80286        4.63220        4.10357
C          2.48550        5.41820        3.48435
C          5.72410        3.70551        4.66273
C          3.03635        4.94183        1.00046
C          1.95378        5.02559        2.08201
H          0.79642        3.60142        4.41599
H          0.00377        1.52453        5.49750
H          1.64629       -0.11648        6.47285
H          4.09665        0.36009        6.36092
H          5.97150        1.81345        5.69181
H          5.18775        5.55693        3.64246
H          1.61980        5.60455        4.15741
H          3.01673        6.39152        3.39943
H          6.80348        3.92226        4.62373
H          2.60136        4.67257        0.01551
H          3.80429        4.17870        1.24626
H          3.56208        5.91361        0.87701
H          1.18847        5.77663        1.78363
H          1.41975        4.05218        2.14835
