12
1-PROPANETHIOL.gamout	Energy:    -517.1515712
C          3.35276        1.06254        2.10148
C          2.06165        1.86454        1.89875
C          0.88018        1.30184        2.70058
S          4.82748        1.73892        1.22667
H          3.21448       -0.00342        1.81967
H          3.65308        1.06974        3.17165
H          1.81039        1.87480        0.81413
H          2.25214        2.92377        2.17712
H          0.65559        0.25100        2.41779
H          1.08511        1.31477        3.79256
H         -0.04154        1.89548        2.52928
H          4.33595        1.58806       -0.03764
