33
1-UNDECENE.gamout	Energy:    -432.0722107
C          5.42206        2.09687        2.45835
C          3.93579        2.30034        2.79376
C          3.02160        2.57081        1.58294
C          6.28637        1.75795        3.68208
C          3.32935        3.84535        0.77121
C          7.77661        1.56051        3.36700
C          3.26366        5.18132        1.55174
C          8.63731        1.24217        4.59926
C          1.92205        5.48812        2.16761
C         10.12472        1.04656        4.28180
C          1.12213        6.51334        1.81739
H          5.83053        3.01273        1.97281
H          5.52198        1.28867        1.69659
H          3.83943        3.12768        3.53413
H          3.56211        1.39552        3.32498
H          1.96628        2.60582        1.93368
H          3.07389        1.69831        0.89313
H          6.17546        2.56758        4.44059
H          5.88937        0.83902        4.17367
H          2.61663        3.89796       -0.08117
H          4.34012        3.76296        0.31312
H          7.89235        0.74616        2.61432
H          8.17192        2.47805        2.87097
H          3.54980        6.00968        0.86733
H          4.03470        5.17097        2.35712
H          8.23939        0.32903        5.09885
H          8.51787        2.06117        5.34495
H          1.57931        4.80714        2.96988
H         10.28125        0.20536        3.57287
H         10.56183        1.95496        3.81362
H         10.71465        0.82723        5.19590
H          0.14923        6.68186        2.30728
H          1.41489        7.22892        1.02862
