23
2,2,3-TRIMETHYLBUTANE.gamout	Energy:    -276.1714085
C          3.26993        1.87199        2.39841
C          1.72170        2.05150        2.16769
C          1.11452        2.89189        3.31651
C          1.41325        2.74584        0.82174
C          1.03197        0.66570        2.18921
C          4.04855        3.19608        2.53035
C          3.96168        0.97996        1.34808
H          3.35683        1.34687        3.38014
H          1.34614        2.44692        4.30833
H          0.00909        2.94084        3.22093
H          1.48791        3.93639        3.31820
H          1.79017        2.16023       -0.04245
H          0.31629        2.86001        0.68801
H          1.85804        3.76139        0.76527
H          1.27197        0.11625        3.12484
H          1.33780        0.02982        1.33353
H         -0.07182        0.77743        2.13747
H          4.05178        3.76911        1.57815
H          3.64235        3.85731        3.32168
H          5.10925        2.99254        2.78803
H          5.02705        0.82365        1.61830
H          3.94862        1.44948        0.34110
H          3.49580       -0.02195        1.26007
