26
2,2,4-TRIMETHYLPENTANE.gamout	Energy:    -315.4538929
C          3.44023        2.50460        1.45360
C          2.03719        2.10083        2.00461
C          4.68954        2.30338        2.35545
C          1.66740        2.97898        3.22158
C          1.97300        0.61193        2.41146
C          1.00615        2.35188        0.87945
C          5.36899        0.93732        2.14067
C          5.70736        3.43919        2.13403
H          3.60504        1.96951        0.48958
H          3.36947        3.58232        1.18205
H          4.36325        2.35952        3.41990
H          1.69859        4.05930        2.96338
H          0.64211        2.74834        3.58190
H          2.35954        2.81710        4.07464
H          2.64762        0.38278        3.26250
H          2.25174       -0.05213        1.56567
H          0.94343        0.33802        2.72742
H          1.23602        1.74084       -0.01935
H         -0.02162        2.09265        1.21215
H          1.00089        3.41874        0.56937
H          5.74550        0.84743        1.09778
H          4.68051        0.08764        2.31787
H          6.23880        0.80951        2.81989
H          6.61178        3.30697        2.76537
H          6.04386        3.46971        1.07421
H          5.27000        4.43113        2.37416
