29
2,2,3-TRIMETHYLHEXANE.gamout	Energy:    -354.7323733
C          4.45837        1.75673        2.15010
C          5.56140        1.82437        3.27690
C          3.08545        2.37463        2.55583
C          4.92441        2.34813        0.80368
C          5.00345        1.28385        4.61367
C          6.06427        3.26972        3.49322
C          6.75936        0.92913        2.88190
C          2.00633        1.35330        2.95874
C          0.66002        1.99486        3.31613
H          4.28493        0.66805        1.97713
H          3.21972        3.11211        3.37907
H          2.68839        2.97129        1.70404
H          5.04158        3.45141        0.85776
H          5.88842        1.92313        0.45690
H          4.17244        2.14066        0.01358
H          4.17991        1.91106        5.01323
H          5.80259        1.26102        5.38504
H          4.62044        0.24687        4.50299
H          6.58475        3.66564        2.59678
H          6.78694        3.30869        4.33627
H          5.23433        3.96584        3.73825
H          7.25165        1.26446        1.94586
H          6.43979       -0.12530        2.73649
H          7.53500        0.93438        3.67748
H          1.86677        0.63239        2.12089
H          2.36773        0.74484        3.81621
H          0.25049        2.57914        2.46403
H          0.75933        2.69399        4.17428
H         -0.09774        1.23258        3.59294
