29
2,2,3,3-TETRAMETHYLPENTANE.gamout	Energy:    -354.7273789
C          1.96654        2.16899        2.44707
C          2.90202        3.42566        2.09586
C          4.26593        3.30611        2.85258
C          3.18684        3.48301        0.57513
C          2.20167        4.74672        2.49850
C          1.41159        2.26752        3.89011
C          0.75466        2.08767        1.48577
C          2.74316        0.83321        2.33310
C          5.17111        4.54723        2.84322
H          4.06851        3.03023        3.91229
H          4.83539        2.45489        2.42080
H          2.27488        3.71120       -0.01241
H          3.92246        4.28157        0.34609
H          3.60833        2.52936        0.19337
H          2.74471        5.62330        2.08930
H          1.16677        4.79925        2.10126
H          2.14681        4.87827        3.59877
H          2.21776        2.38930        4.64393
H          0.70198        3.11054        4.01407
H          0.86102        1.33802        4.14823
H          0.18026        3.03699        1.45161
H          1.05502        1.83315        0.44917
H          0.05386        1.29601        1.82623
H          2.04671       -0.02279        2.45855
H          3.52472        0.73333        3.11303
H          3.23141        0.71347        1.34305
H          4.71949        5.40438        3.38346
H          6.13908        4.32497        3.33962
H          5.40905        4.89006        1.81389
