32
2,2,5,5-TETRAMETHYLHEXANE.gamout	Energy:    -394.0211324
C          3.34541        1.49561        2.29846
C          4.39771        2.56972        1.97984
C          5.88910        2.11323        1.97314
C          6.30949        1.58078        3.36191
C          6.75882        3.34472        1.63225
C          6.13194        1.02286        0.90544
C          1.85401        1.95210        2.30528
C          1.43349        2.48455        0.91655
C          0.98431        0.72064        2.64634
C          1.61132        3.04251        3.37299
H          3.56400        1.04914        3.29467
H          3.43262        0.66244        1.56465
H          4.31043        3.40296        2.71356
H          4.17917        3.01609        0.98357
H          7.39314        1.33591        3.38068
H          5.75890        0.65774        3.63883
H          6.12460        2.33684        4.15540
H          7.83832        3.08220        1.61424
H          6.62149        4.15407        2.38129
H          6.49844        3.76367        0.63621
H          7.21034        0.76202        0.84520
H          5.81488        1.36773       -0.10249
H          5.58001        0.08683        1.13157
H          0.34990        2.72966        0.89795
H          1.61808        1.72839        0.12309
H          1.98428        3.40742        0.63947
H          1.12166       -0.08880        1.89739
H         -0.09520        0.98312        2.66427
H          1.24473        0.30181        3.64241
H          0.53290        3.30321        3.43351
H          2.16307        3.97860        3.14663
H          1.92869        2.69775        4.38086
