38
2,2,4,6,6-PENTAMETHYLHEPTANE.gamout	Energy:    -472.5741491
C          5.33727        3.42784        1.50405
C          6.76589        3.88241        1.93983
C          4.85303        2.02965        1.99584
C          7.05700        5.23848        1.25721
C          6.82590        4.07671        3.47188
C          7.84851        2.86868        1.50987
C          3.45476        2.05252        2.68334
C          5.01502        0.95064        0.90854
C          2.11330        2.18659        1.88919
C          1.71593        0.85828        1.20060
C          2.14509        3.31338        0.83251
C          1.01465        2.51972        2.92938
H          5.28879        3.47016        0.39235
H          4.63598        4.21209        1.86190
H          5.53620        1.73372        2.82532
H          7.04608        5.14326        0.15013
H          8.05356        5.63410        1.54939
H          6.29879        6.00208        1.53465
H          6.63122        3.13023        4.01927
H          6.07744        4.82349        3.81403
H          7.82827        4.43797        3.78732
H          7.83737        2.70371        0.41117
H          8.86100        3.23830        1.78083
H          7.71746        1.88333        2.00454
H          3.48615        2.88485        3.42352
H          3.36456        1.12538        3.29573
H          4.44078        1.20076       -0.00798
H          4.67469       -0.04636        1.25962
H          6.07699        0.84941        0.60471
H          2.40873        0.57455        0.38499
H          0.70074        0.94172        0.75599
H          1.69086        0.01951        1.92931
H          1.15329        3.40781        0.33978
H          2.89240        3.11608        0.03739
H          2.38512        4.29791        1.28565
H          0.01377        2.57919        2.45081
H          1.21126        3.49390        3.42578
H          0.96246        1.74206        3.72136
