24
2,2-DIMETHYL-TRANS-3-HEXENE.gamout	Energy:    -314.2316907
C          3.38808        2.11365        2.59750
C          1.98736        2.13191        1.99908
C          4.46562        2.82951        2.21626
C          1.86219        3.11033        0.81527
C          1.64761        0.69679        1.51927
C          0.98709        2.54125        3.11146
C          5.83094        2.74754        2.85229
C          6.92892        2.28520        1.87530
H          3.50629        1.41695        3.45254
H          4.37708        3.52947        1.36399
H          0.82995        3.09413        0.40635
H          2.08425        4.15339        1.12363
H          2.55391        2.84299       -0.01084
H          2.33781        0.37251        0.71272
H          0.60896        0.64511        1.12714
H          1.73055       -0.03693        2.34915
H         -0.05803        2.51162        2.73462
H          1.04934        1.85589        3.98357
H          1.19272        3.56957        3.47528
H          6.10875        3.75161        3.25062
H          5.79360        2.06484        3.72959
H          6.99825        2.96016        0.99551
H          7.92551        2.27067        2.36418
H          6.72025        1.26402        1.49329
