26
2,3,4-TRIMETHYLPENTANE.gamout	Energy:    -315.4507980
C          0.55717        4.16787        0.85534
C          1.52836        3.01832        0.41946
C          1.38301        2.55512       -1.06585
C          1.52523        1.82450        1.39223
C          1.24392        5.11632        1.85894
C         -0.79386        3.69316        1.42599
C          1.81932        3.64746       -2.06019
C         -0.00149        2.00006       -1.45006
H          0.33576        4.77068       -0.05491
H          2.55219        3.45744        0.47089
H          2.10938        1.71503       -1.17646
H          0.57709        1.24815        1.35818
H          2.34717        1.11685        1.15254
H          1.67159        2.15305        2.44258
H          0.57012        5.94849        2.15384
H          1.53151        4.58047        2.78998
H          2.16701        5.56181        1.43224
H         -1.46564        4.56013        1.60304
H         -1.32577        2.99607        0.74864
H         -0.66854        3.17893        2.40260
H          1.83344        3.25770       -3.09993
H          1.12619        4.51636       -2.04970
H          2.83661        4.02843       -1.82858
H         -0.77476        2.79742       -1.46414
H          0.02715        1.55866       -2.46883
H         -0.34301        1.20349       -0.75723
