32
2,3,5-TRIMETHYLHEPTANE.gamout	Energy:    -394.0145591
C          4.03407        2.84884        2.62506
C          3.35607        3.59052        1.43826
C          5.10137        1.76958        2.28631
C          1.82383        3.81778        1.65170
C          4.05823        4.91803        1.09237
C          6.34900        2.29120        1.53481
C          4.48733        0.56841        1.54422
C          1.01930        2.51081        1.53186
C          1.47790        4.55475        2.95875
C          7.21331        3.28947        2.31606
H          4.47801        3.59722        3.31932
H          3.25641        2.33007        3.22775
H          3.43095        2.93843        0.53716
H          5.46368        1.38955        3.27158
H          1.49812        4.47405        0.81032
H          3.98724        5.64391        1.93062
H          3.59686        5.39306        0.20040
H          5.13490        4.77511        0.87282
H          6.03558        2.73332        0.56137
H          6.97724        1.41272        1.26459
H          4.14528        0.84435        0.52351
H          5.22843       -0.25038        1.42968
H          3.61118        0.15518        2.08738
H          1.19535        2.01615        0.55354
H          1.29177        1.78399        2.32766
H         -0.07096        2.70111        1.62339
H          0.39625        4.80305        2.99502
H          1.69894        3.93039        3.85101
H          2.03780        5.50645        3.07036
H          6.65859        4.21441        2.57779
H          7.57894        2.84517        3.26688
H          8.10446        3.59562        1.72940
