32
2,3,6-TRIMETHYLHEPTANE.gamout	Energy:    -394.0194001
C          3.75394        3.20775        2.45284
C          4.58689        3.60302        3.69857
C          5.64077        4.70867        3.36795
C          5.23787        2.36259        4.34079
C          2.57001        2.26401        2.71951
C          5.00355        5.99992        2.81728
C          6.52481        5.06355        4.57966
C          1.72260        1.91402        1.47333
C          0.76779        0.74396        1.77053
C          0.94115        3.12252        0.92718
H          4.43578        2.73938        1.70362
H          3.36905        4.13070        1.97228
H          3.88296        4.04198        4.44816
H          6.30605        4.29123        2.57361
H          4.48787        1.57579        4.55963
H          5.73947        2.59983        5.29948
H          5.99859        1.91643        3.66210
H          1.90374        2.71256        3.49435
H          2.94234        1.31251        3.15842
H          5.78371        6.76104        2.60670
H          4.30065        6.44199        3.55738
H          4.44321        5.84007        1.87460
H          7.24046        5.87317        4.32336
H          7.12310        4.20462        4.94309
H          5.90518        5.42679        5.42918
H          2.42991        1.57729        0.67789
H          1.31979       -0.16086        2.10200
H          0.04842        1.00888        2.57690
H          0.17337        0.46725        0.87425
H          0.36955        2.85197        0.01452
H          0.21144        3.49234        1.68088
H          1.60521        3.97042        0.65937
