26
2,3,3-TRIMETHYLPENTANE.gamout	Energy:    -315.4503540
C          4.28045        1.86665        2.80142
C          2.92123        2.08080        2.02446
C          1.98356        2.97337        2.89839
C          2.25321        0.70388        1.79978
C          3.15359        2.75620        0.65379
C          4.94905        3.16779        3.28976
C          5.32048        1.02978        2.03026
C          0.51911        3.10143        2.45358
H          4.00443        1.28287        3.71216
H          2.41964        3.99447        2.95098
H          2.00597        2.58100        3.94166
H          2.03898        0.19812        2.76656
H          1.29420        0.80102        1.25111
H          2.89534        0.02633        1.20143
H          2.19079        2.92720        0.12897
H          3.65410        3.74216        0.75554
H          3.77697        2.12785       -0.01542
H          5.89344        2.93330        3.82464
H          5.21352        3.83716        2.44326
H          4.31386        3.74377        3.99152
H          5.71368        1.57147        1.14320
H          6.19169        0.80509        2.68087
H          4.91876        0.05772        1.67971
H          0.42466        3.46871        1.40969
H         -0.01801        3.82725        3.09953
H         -0.03279        2.14099        2.51988
