20
2,3-DIMETHYLBUTANE.gamout	Energy:    -236.8914673
C          3.22990        2.35013        1.87933
C          3.81332        3.76750        1.72442
C          4.29891        1.30908        1.49505
C          1.90125        2.16288        1.08618
C          1.31855        0.74505        1.23964
C          0.83181        3.20298        1.47176
H          2.98443        2.20122        2.95946
H          3.13212        4.55416        2.10602
H          4.02670        3.99528        0.65651
H          4.76988        3.86540        2.27973
H          4.54658        1.37507        0.41236
H          3.97777        0.26891        1.70376
H          5.23919        1.48132        2.05965
H          2.14643        2.31304        0.00616
H          2.00010       -0.04081        0.85705
H          0.36195        0.64733        0.68437
H          1.10543        0.51594        2.30733
H          0.58306        3.13444        2.55404
H         -0.10791        3.03210        0.90582
H          1.15317        4.24364        1.26586
