15
2,3-DIMETHYLTHIOPHENE.gamout	Energy:    -631.3858151
C         -5.10900       -1.90206       -2.23466
C         -4.94882       -0.76402       -1.25683
C         -5.98211       -0.16673       -0.53861
C         -3.66847       -0.17502       -0.95493
C         -7.45212       -0.48002       -0.53163
S         -5.36586        1.10805        0.49871
C         -3.73257        0.84265       -0.02736
H         -4.61116       -1.67315       -3.20111
H         -4.64886       -2.83792       -1.84873
H         -6.17221       -2.12417       -2.45260
H         -2.72823       -0.50381       -1.42313
H         -7.71427       -1.13567       -1.38552
H         -7.76638       -1.00423        0.39765
H         -8.07102        0.43814       -0.61468
H         -2.91658        1.45756        0.37306
