9
2,3-DICHLOROPROPENE.gamout	Energy:   -1036.8108228
C         -0.10261        0.00130        0.00001
C          1.10165        0.59188       -0.00002
C          2.46357       -0.05712       -0.00012
Cl         1.26526        2.34948       -0.00009
Cl         2.41418       -1.86027        0.00001
H         -1.02918        0.59203        0.00007
H         -0.15719       -1.09718        0.00006
H          3.03429        0.25966       -0.89701
H          3.03449        0.25978        0.89659
