29
2,3-DIMETHYLHEPTANE.gamout	Energy:    -354.7375065
C          2.20233        1.78879        0.18801
C          2.15367        0.31881       -0.27363
C          3.43599       -0.39884        0.19137
C          0.85382       -0.41241        0.18937
C         -0.42236        0.26612       -0.36563
C         -1.75341       -0.22538        0.22711
C         -2.97806        0.52906       -0.31663
C         -4.30856        0.06411        0.28824
C          0.87172       -1.91093       -0.17001
H          3.15795        2.26615       -0.11458
H          1.38312        2.40368       -0.23521
H          2.13666        1.85650        1.29646
H          2.14926        0.30977       -1.39095
H          3.46046       -0.49348        1.29989
H          3.53816       -1.41600       -0.23595
H          4.33723        0.17604       -0.10841
H          0.82210       -0.32859        1.30421
H         -0.36440        1.36256       -0.19546
H         -0.44161        0.13616       -1.47404
H         -1.88963       -1.31273        0.03207
H         -1.72278       -0.12055        1.33717
H         -2.84583        1.62026       -0.13463
H         -3.01221        0.41500       -1.42447
H         -4.48780       -1.01513        0.09273
H         -4.32428        0.20532        1.39044
H         -5.16879        0.62589       -0.13168
H          1.70373       -2.45388        0.32036
H         -0.06624       -2.41415        0.14061
H          0.97634       -2.05409       -1.26863
