32
2,3-DIMETHYL-3-ETHYLHEXANE.gamout	Energy:    -394.0088511
C         -0.07122       36.95762        0.17246
C          1.44293       36.94232       -0.08051
C          2.08105       38.33424        0.05972
C          3.63795       38.43977       -0.04223
C          3.98706       39.97854       -0.16066
C          4.22619       37.83748        1.28182
C          4.14804       37.66175       -1.27551
C          5.45027       40.34967        0.14910
C          3.59645       40.60405       -1.51611
C          5.64589       37.24756        1.26149
H         -0.51630       35.94732        0.05925
H         -0.30624       37.31371        1.19866
H         -0.59361       37.63484       -0.53707
H          1.63897       36.53158       -1.09539
H          1.92126       36.22601        0.62527
H          1.78189       38.76554        1.04434
H          1.61727       39.00085       -0.70068
H          3.36314       40.47166        0.62263
H          3.54356       37.02524        1.61460
H          4.14865       38.61374        2.07686
H          3.59297       37.94580       -2.19329
H          5.22524       37.84956       -1.46549
H          4.02658       36.56670       -1.14547
H          5.59478       41.44561        0.04088
H          5.74815       40.08242        1.18168
H          6.16062       39.86057       -0.55185
H          3.68228       41.70992       -1.46794
H          2.55519       40.37100       -1.81799
H          4.26817       40.26028       -2.33120
H          5.92253       36.88287        2.27322
H          6.41956       37.97802        0.95338
H          5.71863       36.38043        0.57363
