24
2,3-DIMETHYLNAPHTHALENE.gamout	Energy:    -464.1831771
C          5.83521        3.18730        1.18952
C          7.13257        3.94386        1.01958
C          4.61120        3.83144        1.02626
C          5.85165        1.78299        1.52294
C          3.36372        3.15656        1.17938
C          7.16535        1.05946        1.70887
C          4.64295        1.10720        1.67108
C          3.38050        1.75118        1.51002
C          2.10538        3.81334        1.01954
C          2.13829        1.06301        1.66438
C          0.91379        3.11684        1.17934
C          0.93043        1.72997        1.50243
H          7.74760        3.91757        1.94553
H          7.76272        3.50882        0.21344
H          6.94844        5.00681        0.76742
H          4.59759        4.90572        0.77348
H          7.00493       -0.00690        1.96254
H          7.79220        1.09960        0.79145
H          7.77376        1.51179        2.52241
H          4.65371        0.03287        1.92369
H          2.09513        4.88732        0.76973
H          2.15474       -0.01126        1.91258
H         -0.05061        3.63517        1.05656
H         -0.02116        1.18831        1.62456
