18
2,3-DIMETHYL-1-BUTENE.gamout	Energy:    -235.6647120
C          2.93160        2.05162        2.49639
C          1.60034        2.37760        1.81526
C          0.78011        3.38987        2.65056
C          1.73375        2.86524        0.36468
C          2.84079        1.22727        3.76232
C          4.12693        2.46098        2.01820
H          1.01850        1.42476        1.79873
H         -0.21185        3.57272        2.18640
H          1.31163        4.36314        2.71481
H          0.60060        3.03471        3.68587
H          2.24031        3.85287        0.31055
H          0.73355        2.98714       -0.10095
H          2.31396        2.15258       -0.25688
H          2.33022        0.25642        3.57287
H          2.24653        1.74160        4.54934
H          3.84248        1.01115        4.18400
H          4.22196        3.05241        1.09489
H          5.06300        2.21388        2.54569
