16
2,3-HEXADIENE.gamout	Energy:    -234.4249658
C          1.10804       -0.27233       -0.19941
C          2.50275        0.23958        0.08308
C          2.82797        1.13078        1.00451
C          3.14514        2.01635        1.93359
C          3.54071        1.69346        3.36266
C          4.96497        2.16093        3.71112
H          1.05517       -1.37551       -0.06926
H          0.81392       -0.06070       -1.25081
H          0.35815        0.19211        0.47069
H          3.31698       -0.17435       -0.54610
H          3.14529        3.09090        1.65615
H          3.44423        0.60025        3.53194
H          2.81694        2.18611        4.05235
H          5.72012        1.65241        3.07624
H          5.20874        1.94515        4.77237
H          5.08341        3.25472        3.55638
