21
2,3-DIMETHYL-2-PENTENE.gamout	Energy:    -274.9515065
C          3.58542        3.04276        2.09114
C          2.98479        1.90850        2.55659
C          2.09962        1.02239        1.68642
C          3.10645        1.40970        3.98152
C          3.42827        3.54520        0.67051
C          4.47505        3.93829        2.92718
C          0.60333        1.39118        1.74836
H          2.43608        1.03854        0.62886
H          2.22014       -0.03225        2.02269
H          3.58926        2.12625        4.67185
H          3.68734        0.45977        4.01947
H          2.10349        1.17215        4.40122
H          4.41383        3.59261        0.15306
H          3.03341        4.58641        0.66709
H          2.75001        2.93248        0.04831
H          4.65297        3.56603        3.95289
H          4.04508        4.96273        3.00904
H          5.46909        4.06258        2.44093
H          0.22030        1.37912        2.79085
H          0.42676        2.41000        1.34468
H         -0.01379        0.67970        1.15949
