16
2,3-BUTANEDIOL.gamout	Energy:    -308.6492386
C         10.02240       16.96441       -0.55752
C         11.49985       16.53531       -0.31014
C         12.33182       17.56959        0.45592
O         11.56116       15.24478        0.29926
C          9.19149       17.10920        0.72179
O          9.96249       18.13759       -1.37004
H          9.57439       16.15662       -1.17672
H         11.95066       16.40253       -1.31814
H         13.38207       17.22606        0.54401
H         12.34053       18.54898       -0.06703
H         11.94272       17.73400        1.48526
H         11.33425       15.36378        1.24146
H          8.13934       17.35179        0.47095
H          9.18974       16.16760        1.30998
H          9.57884       17.92188        1.37563
H         10.18657       18.89545       -0.79652
