27
2,3-DIMETHYL-2-HEPTENE.gamout	Energy:    -353.5155481
C          6.65802        3.68968        1.00470
C          5.38845        3.94534        1.78778
C          4.92343        3.14202        2.79082
C          4.67550        5.20813        1.34921
C          3.62638        3.44026        3.54226
C          5.64117        1.89884        3.27407
C          2.31873        3.06252        2.80525
C          2.16747        1.57294        2.46096
C          0.83460        1.24160        1.77857
H          7.38911        4.51627        1.15807
H          6.44889        3.66836       -0.08877
H          7.16691        2.74336        1.26525
H          4.30234        5.11662        0.30376
H          5.37746        6.07283        1.34592
H          3.81461        5.47557        1.98916
H          3.57590        4.51800        3.81087
H          3.64868        2.89528        4.51281
H          4.96472        1.01591        3.26392
H          5.96382        2.02136        4.33334
H          6.53732        1.64142        2.68040
H          1.45731        3.37677        3.43926
H          2.23818        3.65600        1.86623
H          3.00747        1.26303        1.79979
H          2.26772        0.96854        3.39224
H          0.71416        1.80293        0.82684
H         -0.03035        1.50477        2.42533
H          0.75251        0.16088        1.53860
