32
2,4,6-TRIMETHYLHEPTANE.gamout	Energy:    -394.0173612
C          0.68492        1.19638        1.87467
C          1.67630        1.57805        2.99073
C          2.92780        2.32480        2.44819
C          0.96146        2.42142        4.06292
C          4.16569        1.48201        2.03961
C          4.81408        0.71234        3.21641
C          3.90234        0.51842        0.86739
C          5.25976        1.52902        4.45102
C          6.28068        2.62458        4.09476
C          5.81977        0.59348        5.53608
H          0.28731        2.10865        1.37726
H         -0.18419        0.63412        2.27808
H          1.15261        0.56881        1.09053
H          2.01489        0.63665        3.48350
H          2.62136        2.94357        1.57314
H          3.26129        3.05772        3.21567
H          0.62756        3.39655        3.64370
H          1.62661        2.64125        4.92481
H          0.05960        1.90624        4.45754
H          4.91802        2.21927        1.67444
H          4.11381       -0.08689        3.55340
H          5.70671        0.17043        2.82313
H          3.44568        1.04101        0.00018
H          3.22475       -0.31349        1.15568
H          4.84956        0.05555        0.51717
H          4.36058        2.03014        4.88007
H          5.86682        3.36772        3.38205
H          6.60714        3.18095        4.99882
H          7.19034        2.18470        3.62889
H          6.73169        0.06450        5.18001
H          5.08216       -0.18391        5.82930
H          6.09838        1.15390        6.45356
