32
2,4,4-TRIMETHYLHEPTANE.gamout	Energy:    -394.0158886
C         -2.56040       -0.67176       -2.41319
C         -1.03869       -0.75665       -2.23543
C         -0.45347        0.47818       -1.52965
C          1.07120        0.47370       -1.21627
C          1.88243        0.22979       -2.51000
C          1.44702        1.87237       -0.67233
C          1.48450       -0.62141       -0.18310
C          0.84190       -0.58952        1.23380
C         -0.38768       -1.50879        1.35786
C          1.88053       -0.95124        2.31286
H         -2.96343       -1.56082       -2.94164
H         -3.08189       -0.60103       -1.43411
H         -2.85066        0.22529       -3.00179
H         -0.56180       -0.87997       -3.23235
H         -0.78551       -1.67794       -1.66517
H         -1.01017        0.65348       -0.58090
H         -0.66682        1.37393       -2.15875
H          2.97105        0.34844       -2.32222
H          1.72878       -0.79290       -2.91355
H          1.60013        0.95263       -3.30569
H          2.52031        1.92030       -0.38858
H          0.84703        2.14480        0.22098
H          1.26684        2.65515       -1.43963
H          1.31662       -1.62720       -0.63137
H          2.58916       -0.53657       -0.07292
H          0.50532        0.45196        1.44213
H         -0.83288       -1.44981        2.37393
H         -1.18543       -1.25237        0.63209
H         -0.10577       -2.57022        1.18089
H          1.43560       -0.93328        3.33058
H          2.73778       -0.24557        2.30625
H          2.28890       -1.97287        2.14782
