32
2,4,5-TRIMETHYLHEPTANE.gamout	Energy:    -394.0160078
C         -0.43823       18.07170       -0.28904
C          0.97702       18.53660        0.08040
C          1.27042       20.05656        0.01671
C          0.47027       20.96666        1.01248
C          2.78646       20.28925        0.17882
C         -0.91730       21.38006        0.46425
C          0.38959       20.37992        2.43329
C         -1.68936       22.46398        1.25440
C         -0.92158       23.79431        1.34697
C         -3.07935       22.68228        0.63030
H         -0.48045       16.96496       -0.36947
H         -1.19738       18.36929        0.46321
H         -0.76249       18.48669       -1.26751
H          1.69562       18.03922       -0.60933
H          1.24277       18.15459        1.09235
H          0.99601       20.39686       -1.01009
H          1.06698       21.90496        1.08128
H          3.05062       21.35785        0.03485
H          3.36911       19.69613       -0.55727
H          3.13866       19.99096        1.19027
H         -0.78462       21.74748       -0.58067
H         -1.56747       20.48182        0.38517
H          0.02177       21.12927        3.16438
H          1.38213       20.03859        2.79520
H         -0.30135       19.51130        2.47993
H         -1.84668       22.08937        2.29270
H         -1.51155       24.56191        1.89115
H          0.04735       23.68899        1.87766
H         -0.70408       24.19825        0.33340
H         -3.67379       23.42349        1.20523
H         -3.66335       21.73856        0.59067
H         -2.99042       23.06233       -0.41132
