22
2,4,6-TRIMETHYL_PHENOL.gamout	Energy:    -425.1068257
C          7.28155        3.07005       -0.91739
C          6.35245        1.90611       -0.64549
C          6.86109        0.66030       -0.21565
C          4.95919        2.02314       -0.80661
C          6.03129       -0.44246        0.05080
C          6.57529       -1.77335        0.50966
C          4.63384       -0.28191       -0.12366
O          3.84705       -1.37473        0.14256
C          4.08219        0.94822       -0.55294
C          2.58492        1.07817       -0.72810
H          8.04795        2.81453       -1.68095
H          6.72676        3.95647       -1.28555
H          7.83172        3.37735       -0.00138
H          7.94995        0.53908       -0.08135
H          4.53156        2.98365       -1.14208
H          6.30639       -2.58639       -0.19852
H          7.67903       -1.74462        0.60198
H          6.15104       -2.06749        1.49377
H          2.91585       -1.12958       -0.01616
H          2.18596        0.36473       -1.48601
H          2.03165        0.89615        0.22226
H          2.30962        2.09530       -1.06955
