23
2,4-DIMETHYLQUINOLINE.gamout	Energy:    -480.2162714
C         -3.91776       -2.15107        1.75137
C         -5.36363       -1.88575        2.09282
C         -3.48614       -3.44040        1.27517
C         -2.95014       -1.16302        1.88382
C         -2.08300       -3.60762        0.97408
C         -4.36584       -4.54880        1.08818
C         -1.57790       -1.42198        1.55929
N         -1.16125       -2.60431        1.12049
C         -1.62314       -4.87403        0.50026
C         -3.88643       -5.76958        0.62467
C         -0.54814       -0.32573        1.71367
C         -2.50532       -5.93331        0.32873
H         -5.50794       -0.84412        2.44041
H         -6.02609       -2.04642        1.21527
H         -5.72239       -2.56576        2.89503
H         -3.23673       -0.16095        2.24452
H         -5.43724       -4.43488        1.31393
H         -0.54875       -4.96780        0.28021
H         -4.57897       -6.61494        0.48566
H         -0.79898        0.55228        1.08040
H         -0.49902        0.03574        2.76339
H          0.44691       -0.70860        1.41916
H         -2.13755       -6.90506       -0.03783
