24
2,4-DIMETHYL-2-HEXENE.gamout	Energy:    -314.2356089
C         -0.25648       18.47682       -0.33535
C          1.20191       18.82055       -0.01515
C          1.48264       20.33563        0.16310
C          0.74974       20.89345        1.36252
C          2.99952       20.59316        0.29802
C         -0.17908       21.88099        1.41942
C         -0.78010       22.30228        2.74220
C         -0.69246       22.64640        0.22114
H         -0.40189       17.38120       -0.43900
H         -0.94113       18.83508        0.46199
H         -0.58605       18.94572       -1.28786
H          1.86389       18.43377       -0.82267
H          1.51638       18.29117        0.91460
H          1.13056       20.85234       -0.75826
H          1.03693       20.42155        2.32417
H          3.21915       21.67727        0.38342
H          3.55617       20.19742       -0.57840
H          3.40876       20.09759        1.20547
H         -0.37586       21.71435        3.59064
H         -0.58638       23.37962        2.94799
H         -1.88747       22.18420        2.73905
H         -0.24194       22.31843       -0.73510
H         -1.79707       22.54277        0.13042
H         -0.49482       23.73608        0.33469
