19
2,4-DINITROTOLUENE.gamout	Energy:    -680.1069360
O          6.88140        4.10743       -0.95193
N          7.28989        2.94281       -0.95349
O          8.45680        2.60398       -1.15478
C          6.30047        1.85819       -0.67915
C          6.84949        0.61498       -0.33316
C          4.89831        2.08008       -0.76785
C          5.98221       -0.44112       -0.05107
C          4.25290        3.38805       -1.14958
C          4.07357        0.96289       -0.48432
N          6.55257       -1.76340        0.33010
C          4.59017       -0.28654       -0.12266
O          5.75245       -2.67319        0.55912
O          7.77954       -1.85433        0.38916
H          7.93773        0.48036       -0.28815
H          3.16333        3.24629       -1.28788
H          4.42000        4.15910       -0.37085
H          4.68609        3.80351       -2.08038
H          2.98211        1.09211       -0.55284
H          3.94272       -1.14558        0.10182
