24
2,4-DIMETHYL-2-PENTANOL.gamout	Energy:    -351.3391083
C          2.26581       -0.86437        0.74036
C          1.16154       -0.10729       -0.02735
C          1.36349       -0.27678       -1.54612
C         -0.22279       -0.62231        0.44138
C         -1.50396       -0.06310       -0.22313
C         -2.71050       -0.94533        0.14786
C         -1.78193        1.40970        0.12741
O          1.22963        1.28952        0.32055
H          3.26948       -0.47082        0.46752
H          2.13285       -0.73255        1.83366
H          2.26126       -1.95121        0.51441
H          1.26310       -1.33719       -1.85951
H          0.62875        0.32569       -2.11670
H          2.38013        0.06267       -1.84281
H         -0.21276       -1.72633        0.30240
H         -0.28355       -0.45338        1.54079
H         -1.37509       -0.13086       -1.32835
H         -3.63882       -0.58688       -0.34507
H         -2.55822       -2.00371       -0.15377
H         -2.89198       -0.93290        1.24514
H         -0.93364        2.06040       -0.15578
H         -2.70106        1.77189       -0.38127
H         -1.93686        1.52872        1.22237
H          2.09761        1.61615        0.01417
