20
2,4-DIMETHYLANILINE.gamout	Energy:    -365.9696291
C          7.28893        3.02394       -1.07101
C          6.37396        1.87026       -0.72243
C          6.87979        0.62748       -0.29087
C          4.96980        2.00303       -0.79869
C          6.02316       -0.43127        0.04467
C          4.61901       -0.28542       -0.03357
N          3.76442       -1.31887        0.36273
C          4.08233        0.96508       -0.46401
C          2.58551        1.14877       -0.54274
H          8.33872        2.68762       -1.19209
H          6.98378        3.52294       -2.01544
H          7.28573        3.80826       -0.28108
H          7.97040        0.47894       -0.21993
H          4.54037        2.96372       -1.13375
H          6.44674       -1.39519        0.37411
H          2.85596       -1.35382       -0.10535
H          4.19807       -2.24303        0.42181
H          2.11798        0.47004       -1.29453
H          2.09623        0.92392        0.43152
H          2.31572        2.18447       -0.82806
