15
2,5-DIMETHYLTHIOPHENE.gamout	Energy:    -631.3878998
C         -3.70244        0.86693       -0.09807
C         -2.57926        1.72528        0.40853
S         -5.34005        1.06447        0.50373
C         -3.66747       -0.14434       -1.04198
C         -5.96665       -0.21674       -0.52092
C         -4.94239       -0.75451       -1.28015
C         -7.42086       -0.59004       -0.49391
H         -1.63402        1.44041       -0.09559
H         -2.75395        2.80528        0.21190
H         -2.42449        1.61269        1.50346
H         -2.74023       -0.44222       -1.55461
H         -5.10427       -1.57423       -1.99657
H         -7.60913       -1.41591       -1.20888
H         -7.74742       -0.93370        0.51153
H         -8.07887        0.25919       -0.77924
