24
2,5-DIMETHYL-CIS-3-HEXENE.gamout	Energy:    -314.2252316
C          4.34866        3.16905        2.37103
C          5.20754        1.90535        2.40082
C          3.02619        3.30362        2.12209
C          5.29149        1.20308        1.02730
C          4.80110        0.92162        3.52092
C          1.98680        2.25169        1.79461
C          1.38147        2.51138        0.39790
C          0.88271        2.22977        2.87393
H          4.89494        4.10675        2.58372
H          6.23969        2.24405        2.64312
H          2.61754        4.33397        2.15555
H          6.01568        0.36082        1.05579
H          4.30968        0.78767        0.71806
H          5.61984        1.90640        0.23425
H          5.51809        0.07484        3.57692
H          4.78580        1.42178        4.51114
H          3.79170        0.49376        3.34714
H          2.46878        1.25068        1.77687
H          0.89566        3.51068        0.35529
H          2.15901        2.48421       -0.39312
H          0.60895        1.75348        0.14741
H          0.10596        1.47171        2.63706
H          1.29709        1.99593        3.87616
H          0.37650        3.21737        2.94246
