29
2,5-DIMETHYLHEPTANE.gamout	Energy:    -354.7398128
C          4.03171        2.15948        2.67306
C          3.32323        2.10275        4.04710
C          1.79488        2.26420        3.86578
C          3.89937        3.13573        5.03187
C          5.49578        1.69076        2.66867
C          0.95096        2.04983        5.12872
C          6.20134        1.73793        1.29269
C          7.51985        0.94585        1.33492
C          6.44739        3.17751        0.80631
H          3.45911        1.52986        1.95368
H          3.96023        3.20047        2.28160
H          3.50108        1.08609        4.47472
H          1.59046        3.27682        3.44542
H          1.46055        1.54537        3.08400
H          3.74377        4.17023        4.65312
H          3.42067        3.07010        6.03029
H          4.98896        2.99714        5.18750
H          6.09565        2.29274        3.38992
H          5.53305        0.64410        3.04931
H          1.12008        1.03956        5.56035
H          1.18156        2.79090        5.92227
H         -0.13307        2.13825        4.90699
H          5.53008        1.23885        0.55345
H          7.35057       -0.11341        1.62236
H          8.22192        1.38352        2.07863
H          8.03490        0.95065        0.35083
H          7.13402        3.71534        1.49684
H          5.50900        3.76542        0.74047
H          6.91558        3.18670       -0.20071
