24
2,5-DIMETHYL-TRANS-3-HEXENE.gamout	Energy:    -314.2332930
C          3.39677        3.72612        2.25389
C          2.98835        2.45578        2.05945
C          4.79873        4.25001        2.03384
C          1.58640        1.93191        2.27954
C          5.40015        4.78570        3.35030
C          4.81543        5.33755        0.93827
C          1.56972        0.84424        3.37498
C          0.98487        1.39636        0.96306
H          2.65561        4.47279        2.60718
H          3.72951        1.70910        1.70617
H          5.42993        3.39962        1.68706
H          0.95524        2.78227        2.62644
H          4.79583        5.62842        3.75226
H          5.43545        3.99745        4.13038
H          6.43401        5.16217        3.19627
H          5.84503        5.71696        0.76509
H          4.42576        4.94862       -0.02497
H          4.18414        6.20512        1.23036
H          1.95980        1.23295        4.33815
H          0.54007        0.46511        3.54842
H          2.20069       -0.02347        3.08259
H          1.58928        0.55381        0.56087
H          0.94936        2.18474        0.18311
H         -0.04890        1.01968        1.11715
