22
2,6-OCTADIENE.gamout	Energy:    -313.0058981
C          4.45834        1.51117        1.99654
C          3.10411        2.01713        1.57430
C          5.46802        1.40374        0.82111
C          1.94372        1.33717        1.68534
C          0.59232        1.83945        1.25956
C          6.82262        0.90043        1.24536
C          7.98107        1.58519        1.14411
C          9.33158        1.08553        1.57591
H          4.35581        0.51879        2.48931
H          4.89589        2.19537        2.76033
H          3.08150        3.02814        1.11982
H          5.56877        2.39576        0.32724
H          5.03236        0.71766        0.05799
H          1.97141        0.32623        2.13822
H          0.65074        2.85388        0.81420
H          0.12341        1.16276        0.51062
H         -0.11396        1.88278        2.11879
H          6.84697       -0.11331        1.69368
H          7.95230        2.59888        0.69746
H         10.04927        1.06590        0.72553
H          9.78466        1.75043        2.34507
H          9.27587        0.06200        2.00034
