24
2,7-DIMETHYLNAPHTHALENE.gamout	Energy:    -464.1840264
C          1.86443        3.30974        0.85651
C          0.56378        4.08071        0.85095
C          3.09975        3.95446        0.85529
C          1.84368        1.87793        0.86289
C          4.33142        3.23078        0.86018
C          3.01852        1.14085        0.86779
C          4.29141        1.78792        0.86656
C          5.60136        3.88552        0.85887
C          5.52650        1.07175        0.87127
C          6.79916        3.17343        0.86358
C          6.74019        1.74266        0.86982
C          8.14219        3.86782        0.86229
H         -0.04989        3.82971       -0.04126
H         -0.05351        3.83739        1.74281
H          0.73652        5.17528        0.84670
H          3.13827        5.05718        0.85039
H          0.87123        1.35795        0.86393
H          2.98366        0.03883        0.87262
H          5.62116        4.98877        0.85403
H          5.50209       -0.03062        0.87609
H          7.68152        1.16804        0.87352
H          8.73978        3.58902        1.75705
H          8.74316        3.57928       -0.02709
H          8.03494        4.97076        0.85612
