34
2-(2-BUTOXYETHOXY)ETHYL_ACETATE.gamout	Energy:    -693.4725673
O         -2.77556        0.24896        0.00311
O          0.79749       -0.20638       -0.00113
O          4.33006        0.52810       -0.00213
O          5.63249       -1.33189       -0.03697
C         -5.17449        0.31591        0.00316
C         -3.93202       -0.57099       -0.00512
C         -6.48846       -0.47892       -0.00648
C         -1.56639       -0.47941       -0.00156
C         -0.41521        0.52246        0.00474
C         -7.73725        0.41224        0.00216
C          1.94928        0.60985        0.00409
C          3.16194       -0.31318       -0.00820
C          5.53054       -0.12067       -0.01659
C          6.67396        0.87243       -0.00386
H         -5.12746        0.99134       -0.88003
H         -5.12914        0.97346        0.89980
H         -3.93408       -1.23514       -0.90890
H         -3.93422       -1.25292        0.88529
H         -6.51247       -1.14133       -0.90173
H         -6.51429       -1.16023        0.87447
H         -1.48201       -1.13627       -0.90432
H         -1.48198       -1.14764        0.89282
H         -0.49637        1.18953       -0.88986
H         -0.49539        1.17770        0.90812
H         -7.76381        1.08025       -0.88523
H         -8.66928       -0.19005       -0.00549
H         -7.76540        1.06027        0.90415
H          1.98274        1.26859        0.90877
H          1.97887        1.28510       -0.88850
H          3.16250       -0.98143        0.87924
H          3.15725       -0.96235       -0.90964
H          6.60593        1.54417       -0.88368
H          7.63520        0.32924       -0.01617
H          6.61179        1.51464        0.89816
