17
2-AMINO-2-METHYL-1-PROPANOL.gamout	Energy:    -288.7957865
O          1.97327        0.37233       -0.26356
N         -1.38219       -0.21084        1.26184
C         -0.37750       -0.10569        0.18746
C          1.01188        0.24440        0.77630
C         -0.82540        1.00120       -0.78387
C         -0.30480       -1.46127       -0.53757
H          1.29418       -0.56127        1.50350
H          0.91093        1.19412        1.36450
H         -0.08663        1.12631       -1.59945
H         -0.91628        1.97643       -0.25723
H         -1.81508        0.75316       -1.21738
H         -1.28669       -1.71251       -0.98685
H          0.46781       -1.43912       -1.33104
H         -0.03708       -2.27321        0.17390
H         -1.09097       -0.92886        1.94221
H         -1.42105        0.67546        1.78728
H          2.83106        0.59268        0.14226
