24
2-BIPHENYLAMINE.gamout	Energy:    -518.2852969
N          0.80639       -2.24630       -0.55976
C          0.69571       -0.13524        0.70840
C         -0.76928       -0.26739        0.96120
C          1.42583       -1.10907       -0.04782
C          1.39097        0.98934        1.20786
C         -1.33771       -1.46791        1.45895
C         -1.63524        0.83338        0.74185
C          2.81592       -0.91305       -0.25043
C          2.76687        1.17205        1.00320
C          3.47815        0.20588        0.26948
C         -2.71392       -1.55964        1.72684
C         -3.01049        0.74035        1.00870
C         -3.55791       -0.45817        1.49998
H          0.82518        1.72965        1.79661
H         -0.68424       -2.33121        1.66095
H         -1.21627        1.77127        0.34335
H          3.37690       -1.66195       -0.83439
H          3.27869        2.05295        1.41992
H          4.55942        0.32477        0.09353
H         -3.12906       -2.49908        2.12645
H         -3.66222        1.60922        0.82230
H         -4.63718       -0.53309        1.70753
H         -0.20546       -2.18486       -0.69921
H          1.29232       -2.70362       -1.33360
