8
2-BROMO-2-CHLORO-1,1,1-TRIFLUOROETHANE.gamout	Energy:   -3410.2693930
C         41.00519       20.00801        0.02899
C         39.45868       20.00283        0.01750
F         38.93932       20.62578        1.08538
F         39.01141       20.61343       -1.09992
F         39.01251       18.72839        0.00283
Br        41.68396       21.84703       -0.03613
Cl        41.62495       19.11102        1.43838
H         41.36656       19.50855       -0.88840
