14
2-BROMOBUTANE.gamout	Energy:   -2731.8506162
C          0.00153       -0.17583       -0.25778
C          1.52523       -0.05736       -0.16832
Br         2.07778        1.87346       -0.23268
C          2.12009       -0.68823        1.08493
C         -0.62922        0.32917       -1.55787
H         -0.44593        0.34127        0.61996
H         -0.22791       -1.25938       -0.12527
H          1.99980       -0.47464       -1.08038
H          1.90544       -1.77968        1.09119
H          1.68040       -0.24530        2.00221
H          3.21860       -0.55294        1.12771
H         -0.41944        1.40766       -1.71023
H         -1.73013        0.19353       -1.54346
H         -0.23621       -0.21988       -2.44016
