11
2-CHLOROPYRIDINE.gamout	Energy:    -707.6063543
C          3.08690        0.21342       -0.16513
C          4.35805       -0.38839       -0.21069
C          1.96298       -0.62168       -0.05947
N          2.04335       -1.96487       -0.00002
C          3.25110       -2.51139       -0.04453
C          4.45631       -1.78519       -0.14958
Cl         3.34033       -4.27011        0.03396
H          2.96911        1.30670       -0.21056
H          5.26933        0.22521       -0.29337
H          0.94462       -0.19459       -0.02024
H          5.42435       -2.30515       -0.18132
