13
2-CHLOROPHENOL.gamout	Energy:    -766.7439679
Cl         2.24616       -1.21379        0.03819
O          1.44590        1.60985        0.11096
C          0.37198        0.77784        0.05778
C          0.60114       -0.62187        0.01764
C         -0.96129        1.23925        0.04061
C         -0.47484       -1.52097       -0.03763
C         -2.03750        0.33870       -0.01472
C         -1.79763       -1.04507       -0.05402
H         -1.14881        2.32678        0.07151
H         -0.25872       -2.59935       -0.06745
H         -3.06788        0.72679       -0.02690
H         -2.63509       -1.75777       -0.09745
H          1.12015        2.53021        0.13319
