20
2-ETHYL-4-ETHOXYMETHYL-1,3-DIOXOLANE.gamout	Energy:    -386.0108274
C          2.94641        4.22764        6.61387
C          2.95265        3.44526        5.29663
C          3.79941        2.18174        5.35226
C          5.06701       -0.47469        3.45555
C          5.88048        1.39201        5.06152
C          5.07844        1.01101        3.79645
O          5.16180        2.49991        5.58450
O          3.75345        1.47896        4.10677
H          2.54478        3.61574        7.44963
H          3.97273        4.54250        6.89171
H          2.31787        5.13806        6.53516
H          3.34464        4.06398        4.46116
H          1.92383        3.13553        5.01330
H          3.43076        1.49604        6.16609
H          4.38607       -0.67122        2.60326
H          6.08269       -0.82275        3.17128
H          4.71572       -1.07518        4.32052
H          5.89909        0.53895        5.78772
H          6.92359        1.70657        4.85767
H          5.45860        1.59208        2.92175
