16
2-ETHYL-1,3-BUTADIENE.gamout	Energy:    -234.4392667
C          4.21292        1.64429        2.00690
C          3.20939        2.08464        0.92105
C          1.77893        1.65446        1.20204
C          1.22634        0.59250        0.55823
C          0.97982        2.38658        2.19962
C          1.34483        3.50340        2.87148
H          4.24421        0.53800        2.08930
H          3.94157        2.04405        3.00507
H          5.23746        1.99704        1.76612
H          3.52308        1.66139       -0.05658
H          3.24814        3.19093        0.80708
H          0.19765        0.26011        0.77596
H          1.78539        0.02673       -0.20480
H         -0.02511        1.96623        2.39057
H          0.66063        3.98280        3.58913
H          2.32672        3.98322        2.72999
