21
2-ETHYL-1-BUTANOL.gamout	Energy:    -312.0478464
C         18.00959       -0.05863        0.00133
C         19.18760        0.94339        0.03184
C         19.19156        1.81378        1.30928
C         20.52082        0.19977       -0.13810
C         16.63255        0.57058       -0.24306
C         20.07971        3.06457        1.24878
O         20.54468       -0.41791       -1.42008
H         18.22223       -0.79934       -0.79815
H         18.00226       -0.62608        0.96160
H         19.08712        1.61612       -0.85341
H         18.14806        2.13201        1.52264
H         19.49175        1.17766        2.17479
H         21.37093        0.91633       -0.02016
H         20.61194       -0.55487        0.68698
H         15.83594       -0.20193       -0.27172
H         16.35050        1.29801        0.54812
H         16.60439        1.11143       -1.21339
H         20.00470        3.66068        2.18241
H         21.15296        2.81723        1.10755
H         19.78203        3.72785        0.40841
H         21.36596       -0.93752       -1.48308
