24
2-ETHYLNAPHTHALENE.gamout	Energy:    -464.1792183
C          7.72555        3.56027        1.71728
C          6.61669        2.92252        0.85690
C          5.39277        2.52224        1.65867
C          4.23885        3.30328        1.66979
C          5.41594        1.33272        2.45487
C          3.09494        2.95147        2.44939
C          4.32505        0.95691        3.22434
C          3.13559        1.74843        3.24930
C          1.90770        3.74687        2.46601
C          1.99146        1.39490        4.02755
C          0.81172        3.37669        3.23521
C          0.85295        2.19138        4.02241
H          7.36538        4.48549        2.21346
H          8.06444        2.86727        2.51568
H          8.60996        3.82464        1.10063
H          6.31742        3.63119        0.05480
H          7.02505        2.02402        0.34267
H          4.19671        4.22180        1.05956
H          6.32151        0.70307        2.44673
H          4.35976        0.03460        3.82710
H          1.87777        4.66386        1.85503
H          2.02641        0.47618        4.63586
H         -0.09578        4.00131        3.23819
H         -0.02248        1.90782        4.62800
