20
2-ETHYL-1-NITROBENZENE.gamout	Energy:    -515.0168918
C          7.13630        3.10827       -1.02024
C          7.40071        4.01343        0.19885
C          6.29964        1.88553       -0.68851
C          6.79927        0.61550       -0.29944
C          4.89038        1.99042       -0.77059
N          8.25933        0.34762       -0.17459
C          5.95715       -0.47870       -0.02266
C          4.03459        0.91972       -0.47383
O          8.62977       -0.82484       -0.27476
O          9.01324        1.30426        0.03534
C          4.56870       -0.32561       -0.09600
H          6.58511        3.68602       -1.79351
H          8.10384        2.80403       -1.46297
H          7.98419        4.90764       -0.10295
H          7.98214        3.46835        0.96785
H          6.45282        4.36344        0.65826
H          4.46073        2.95525       -1.08674
H          6.42491       -1.43571        0.24760
H          2.94397        1.05573       -0.54661
H          3.90749       -1.17521        0.13383
