18
2-ETHYL-1-BUTENE.gamout	Energy:    -235.6643266
C          1.20188        2.00219        1.60247
C          2.29589        1.35522        2.43685
C          3.71291        1.88094        2.27262
C          2.01814        0.34866        3.29415
C          0.94234        3.48377        1.93811
C          4.31679        1.64681        0.87436
H          1.46351        1.91950        0.52243
H          0.26218        1.42473        1.73525
H          3.72936        2.97326        2.49277
H          4.36220        1.40482        3.03800
H          0.99347       -0.04268        3.41137
H          2.80615       -0.11883        3.90846
H          0.66565        3.60852        3.00596
H          1.83301        4.11818        1.74696
H          0.11243        3.88991        1.32310
H          5.36107        2.01978        0.82593
H          4.33062        0.56607        0.62071
H          3.74575        2.16919        0.07826
