36
2-HEXYLNAPHTHALENE.gamout	Energy:    -621.3105560
C          8.55286        3.51785        0.87393
C          8.26380        2.30048       -0.03299
C          6.96626        1.59238        0.30039
C          9.88229        4.21705        0.55628
C          5.80806        1.78006       -0.45158
C          6.90386        0.72549        1.43792
C         10.17688        5.43004        1.45230
C          4.57627        1.13776       -0.11832
C          5.72755        0.08383        1.79446
C         11.50848        6.12947        1.13873
C          4.53166        0.26638        1.03576
C          3.38431        1.32074       -0.88436
C         11.79494        7.33920        2.03617
C          3.30256       -0.37905        1.36921
C          2.20325        0.67861       -0.53261
C          2.16120       -0.17844        0.60318
H          7.71105        4.24111        0.78486
H          8.55305        3.18938        1.93821
H          9.10710        1.57900        0.05899
H          8.25043        2.62962       -1.09500
H         10.71464        3.48102        0.64983
H          9.88655        4.53724       -0.51168
H          5.83222        2.43873       -1.33682
H          7.81557        0.56163        2.03668
H          9.34317        6.16464        1.36090
H         10.17405        5.10844        2.51996
H          5.70497       -0.58306        2.67220
H         12.33854        5.39227        1.23239
H         11.51101        6.44713        0.07086
H          3.41434        1.98297       -1.76541
H         12.76274        7.82024        1.78298
H         11.00427        8.11418        1.93915
H         11.83856        7.04882        3.10807
H          3.27465       -1.04203        2.24964
H          1.29331        0.83187       -1.13438
H          1.21969       -0.68279        0.87276
