16
2-HEXYNE.gamout	Energy:    -234.4226012
C          3.52587        1.58000        1.25948
C          4.59869        2.15436        1.10895
C          5.88260        2.82839        0.93017
C          2.23444        0.90575        1.43006
C          1.00526        1.77484        1.06506
C          0.83907        3.01727        1.94643
H          5.79147        3.70840        0.25726
H          6.64151        2.15026        0.48366
H          6.29264        3.19393        1.89634
H          2.13912        0.56096        2.48623
H          2.22241       -0.01981        0.81103
H          0.09981        1.13325        1.13828
H          1.08870        2.07793       -0.00152
H         -0.04486        3.61290        1.63868
H          1.73182        3.67328        1.88096
H          0.70361        2.74312        3.01471
