22
2-HEPTANONE.gamout	Energy:    -350.1378669
O         -2.14738        4.38557       -2.02698
C          1.12349        1.50996       -0.08435
C         -0.25259        1.85434       -0.67543
C          1.55242        0.05497       -0.33172
C         -0.66287        3.32674       -0.45493
C          2.92245       -0.29287        0.26359
C         -2.03007        3.65929       -1.05083
C         -3.26158        3.03306       -0.39177
H          1.88856        2.19881       -0.51103
H          1.11578        1.71366        1.01178
H         -0.24768        1.64150       -1.76825
H         -1.01951        1.17632       -0.23646
H          0.77852       -0.62964        0.08498
H          1.56201       -0.13972       -1.42847
H          0.07448        4.00838       -0.92695
H         -0.68395        3.54243        0.63853
H          2.93456       -0.15166        1.36568
H          3.19919       -1.34797        0.05967
H          3.72328        0.34996       -0.16071
H         -3.97958        3.84102       -0.14168
H         -3.76994        2.37452       -1.12688
H         -3.03492        2.44722        0.52040
