25
2-ISOPROPYL-4-METHYLPHENOL.gamout	Energy:    -464.3828746
O          1.02269       -2.36331       -0.02346
C          2.02437        0.30208        0.01357
C          0.53053       -0.01894       -0.00138
C          2.43869        1.04458        1.30085
C          2.45774        1.07489       -1.24949
C         -0.44555        0.99524        0.00236
C          0.08029       -1.36539       -0.01975
C         -1.83451        0.73536       -0.01109
C         -1.29884       -1.65139       -0.03307
C         -2.24311       -0.61247       -0.02870
C         -2.83596        1.86966       -0.00669
H          2.55666       -0.67150        0.00557
H          1.95292        2.04146        1.37439
H          3.53737        1.20715        1.32676
H          2.15811        0.46863        2.20676
H          2.19026        0.52109       -2.17296
H          3.55673        1.23744       -1.25543
H          1.97352        2.07367       -1.30640
H         -0.10525        2.04508        0.01666
H         -1.63534       -2.70285       -0.04726
H         -3.31759       -0.85852       -0.03930
H         -2.70963        2.53210       -0.89044
H         -3.87849        1.49278       -0.01854
H         -2.72327        2.51352        0.89253
H          0.55709       -3.22076       -0.03627
