24
2-ISOPROPYL-1-PENTENE.gamout	Energy:    -314.2277027
C          0.12711       19.10963        0.78206
C          1.36313       19.99351        0.57606
C          1.10377       21.19329       -0.36348
C          2.32176       22.08264       -0.58733
C          2.43234       23.38871        0.20040
C          3.28071       21.72794       -1.47017
C          1.38331       24.41962       -0.27214
C          2.35267       23.18400        1.72703
H          0.34588       18.25450        1.45466
H         -0.71332       19.68045        1.23294
H         -0.23973       18.69199       -0.18046
H          2.19685       19.38851        0.15615
H          1.72612       20.36506        1.55900
H          0.25873       21.79251        0.04385
H          0.75182       20.80172       -1.34382
H          3.43588       23.81355       -0.02740
H          4.18103       22.34657       -1.62384
H          3.20078       20.80706       -2.07311
H          1.51189       25.38564        0.26103
H          1.47067       24.61485       -1.36066
H          0.34699       24.07064       -0.07410
H          2.49557       24.14812        2.25976
H          3.13290       22.48153        2.08638
H          1.36382       22.78447        2.04026
