18
2-METHOXY-2-METHYLPROPANE.gamout	Energy:    -272.7608867
C          1.10855        1.68032        0.17128
C          0.90386        3.05665        0.83630
H          1.51853        3.17769        1.75248
H         -0.15619        3.18930        1.13538
H          1.16974        3.86967        0.12940
C          0.18785        1.54141       -1.05168
H         -0.88038        1.58554       -0.75748
H          0.37829        0.57382       -1.55838
H          0.39221        2.35332       -1.77885
C          0.84064        0.53737        1.17192
H         -0.20666        0.57056        1.53675
H          1.50004        0.60213        2.06244
H          1.01081       -0.44548        0.68655
C          3.54075        1.72628        0.46451
O          2.43473        1.56133       -0.39618
H          3.60561        2.74873        0.90937
H          4.44845        1.56786       -0.15262
H          3.56615        0.98899        1.30336
