20
2-METHYL_CYCLOHEXANONE.gamout	Energy:    -348.9400183
C          0.97430        0.17420        0.30459
C          2.49765        0.04977        0.07606
C          2.96906        1.08208       -0.96393
C          2.93015       -1.38484       -0.32834
O          3.50572        2.13053       -0.63579
C          2.70830        0.72119       -2.42718
C          2.56595       -1.73981       -1.78001
C          3.15557       -0.71805       -2.76609
H          0.69913        1.20756        0.60007
H          0.65324       -0.50879        1.11902
H          0.38572       -0.08726       -0.59913
H          3.00651        0.33589        1.02121
H          2.48312       -2.11628        0.38073
H          4.03312       -1.47156       -0.20348
H          3.20422        1.48239       -3.06229
H          1.61036        0.81108       -2.60075
H          1.45956       -1.78144       -1.90044
H          2.93640       -2.75895       -2.02397
H          4.26728       -0.76937       -2.72785
H          2.86893       -0.96769       -3.81014
