30
2-METHYL-1-NONENE.gamout	Energy:    -392.7943757
C          5.61983        4.78625        3.19858
C          4.49158        4.36331        4.15183
C          6.42136        5.99609        3.69413
C          3.68007        3.15345        3.66268
C          2.56155        2.73427        4.63076
C          1.74477        1.49329        4.21899
C          0.64372        1.72227        3.15278
C          1.93463        1.00319        1.03815
C          1.09054        2.04443        1.73669
C          0.70838        3.18220        1.11548
H          6.30698        3.92346        3.04071
H          5.18486        5.01072        2.19790
H          4.92440        4.13827        5.15506
H          3.80362        5.22684        4.30925
H          7.22742        6.27708        2.98458
H          6.90048        5.79128        4.67596
H          5.77050        6.88715        3.82725
H          3.24395        3.38267        2.66565
H          4.36935        2.29017        3.50880
H          3.01743        2.54067        5.62873
H          1.86564        3.59235        4.78268
H          2.43447        0.68394        3.88695
H          1.23646        1.09281        5.12348
H          0.02924        0.79166        3.10588
H         -0.03797        2.52425        3.51138
H          1.42592        0.01314        1.04039
H          2.90876        0.85226        1.55289
H          2.14752        1.27991       -0.01352
H          0.08254        3.93312        1.62589
H          1.00545        3.40021        0.07601
