32
2-METHYL-4-ETHYLHEPTANE.gamout	Energy:    -394.0203627
C         -0.76823        0.36268        0.16348
C          0.70780        0.77040        0.25090
C          0.95067        2.25727       -0.05573
C          2.42753        2.71692        0.00279
C          3.21701        2.22080       -1.23313
C          2.53502        4.25437        0.15441
C          4.76036        2.22346       -1.12367
C          5.28110        1.18678       -0.11241
C          5.40019        2.00668       -2.50641
C          2.14351        4.80146        1.53325
H         -0.91191       -0.71167        0.40243
H         -1.39171        0.94850        0.87279
H         -1.17888        0.53608       -0.85459
H          1.30723        0.13643       -0.44043
H          1.09605        0.54299        1.27037
H          0.34761        2.86139        0.65874
H          0.54057        2.50039       -1.06506
H          2.87982        2.25585        0.91308
H          2.89610        1.18555       -1.49088
H          2.91790        2.84777       -2.10538
H          3.57724        4.56964       -0.07297
H          1.90567        4.73022       -0.63355
H          5.07754        3.23214       -0.76834
H          6.38839        1.22181       -0.03678
H          4.87532        1.35267        0.90710
H          4.99941        0.15582       -0.42068
H          6.50913        2.03204       -2.45130
H          5.07958        2.78606       -3.22954
H          5.11171        1.01981       -2.93164
H          2.24047        5.90642        1.57175
H          1.09323        4.55637        1.79681
H          2.79099        4.38023        2.33197
