21
2-METHYL-1-PENTANOL.gamout	Energy:    -312.0492211
C          3.13324        2.06546        2.84779
C          1.95649        1.80217        1.88193
C          1.38958        3.10893        1.30919
C          0.84635        0.97250        2.54529
C          4.43825        2.55330        2.19501
O          0.43569        2.79494        0.29988
C          5.57758        2.76816        3.19919
H          2.81246        2.79663        3.62806
H          3.34641        1.12307        3.40168
H          2.34524        1.22603        1.00887
H          0.92856        3.69483        2.14685
H          2.22086        3.73307        0.89682
H          1.21766       -0.02625        2.85691
H          0.45676        1.48436        3.45320
H         -0.00121        0.82842        1.84660
H          4.75440        1.81472        1.42343
H          4.25636        3.50175        1.64211
H          0.00996        3.62674        0.02442
H          5.31095        3.53290        3.96038
H          5.81774        1.83146        3.74700
H          6.50740        3.10829        2.69762
