25
2-METHYLTETRALIN.gamout	Energy:    -427.3005447
C          1.99771        2.06677        1.12083
C          0.54240        2.01730        1.60572
C          2.64109        3.43703        1.40832
C          2.86447        0.96282        1.75442
C          4.13785        3.49870        1.14429
C          4.27859        0.94330        1.15561
C          4.92019        2.31909        1.05450
C          4.77392        4.75338        1.01432
C          6.31199        2.43452        0.84047
C          6.15605        4.85591        0.80163
C          6.93226        3.68580        0.71474
H          2.00495        1.90913        0.01573
H          0.48916        2.14534        2.70880
H          0.06368        1.04690        1.35716
H         -0.06801        2.82287        1.14572
H          2.45373        3.69025        2.47996
H          2.13180        4.23390        0.82261
H          2.38703       -0.03181        1.61945
H          2.91733        1.13825        2.85426
H          4.23361        0.49722        0.13412
H          4.94027        0.26977        1.74267
H          4.16263        5.66943        1.08292
H          6.91845        1.51516        0.77264
H          6.62743        5.84682        0.70333
H          8.01973        3.74928        0.54959
