19
2-METHYL_TETRAHYDROFURAN.gamout	Energy:    -310.8474440
C          3.50309        3.64742        0.86420
C          3.66487        2.52820        1.90749
C          3.20862        1.13775        1.40881
O          3.03757        2.85518        3.15880
C          1.67417        1.00588        1.38223
C          1.61332        2.80352        3.14331
C          1.09112        1.41806        2.74483
H          4.15005        3.45128       -0.01591
H          2.46202        3.74746        0.49329
H          3.80319        4.61941        1.30587
H          4.74451        2.46841        2.16686
H          3.64615        0.93560        0.40686
H          3.62226        0.37045        2.09985
H          1.24416        1.65177        0.58321
H          1.38304       -0.03551        1.12654
H          1.29226        3.07546        4.17056
H          1.19011        3.57619        2.45190
H         -0.02080        1.42669        2.72161
H          1.39605        0.68129        3.52142
