18
2-METHYL-2-BUTANETHIOL.gamout	Energy:    -595.7187493
C          1.99868        2.68725        2.46235
C          0.60112        2.84610        1.85641
C          3.05540        1.94393        1.60387
C          4.38031        1.84419        2.37777
C          2.57782        0.54133        1.18342
S          3.35484        2.85763       -0.01331
H          2.40861        3.69223        2.71136
H          1.92739        2.14574        3.43525
H         -0.05073        3.44668        2.52380
H          0.65909        3.35965        0.87456
H          0.09809        1.86931        1.69996
H          5.16640        1.35723        1.76625
H          4.75063        2.84798        2.67503
H          4.24330        1.25007        3.30888
H          3.36740        0.00635        0.61670
H          2.33548       -0.06060        2.08564
H          1.67139        0.58309        0.54654
H          3.85268        3.99508        0.55455
