26
2-METHYL-3-ETHYLPENTANE.gamout	Energy:    -315.4520589
C          3.61560        2.44641        1.21028
C          2.41393        2.57886        2.19949
C          1.55122        3.82884        1.88757
C          1.55719        1.28906        2.30426
C          4.47008        1.19218        1.48098
C          4.52508        3.69098        1.22157
C          0.37367        4.07757        2.84073
C          0.85471        0.83890        1.01505
H          3.19411        2.35126        0.18100
H          2.85895        2.73684        3.21350
H          2.20514        4.72535        1.91160
H          1.17446        3.76364        0.84068
H          2.19486        0.46075        2.68059
H          0.79420        1.44397        3.09767
H          5.34265        1.15852        0.79565
H          4.86549        1.19398        2.52093
H          3.90645        0.24802        1.33845
H          4.91457        3.89012        2.24470
H          5.40350        3.54502        0.55775
H          4.00857        4.60820        0.87492
H          0.70725        4.09873        3.90113
H         -0.41669        3.30263        2.75821
H         -0.10792        5.05475        2.62724
H          1.57642        0.59477        0.20665
H          0.16747        1.61506        0.61669
H          0.24676       -0.07278        1.19302
