18
2-METHOXYETHYL_ACETATE.gamout	Energy:    -421.9040071
O          0.83434       -0.50566       -0.00164
O         -2.64580        0.44872       -0.00296
O          2.25637        1.26497        0.00687
C         -0.27739        0.40943        0.00085
C         -1.54553       -0.43451       -0.00514
C          2.07466        0.06298        0.00216
C         -3.88925       -0.21694       -0.00844
C          3.15020       -1.00345       -0.00036
H         -0.23733        1.06348        0.89797
H         -0.23430        1.07187       -0.88994
H         -1.55593       -1.10761        0.89067
H         -1.55285       -1.09919       -0.90725
H         -4.02299       -0.86824        0.89124
H         -4.01935       -0.86004       -0.91453
H         -4.68369        0.55553       -0.00656
H          3.04418       -1.65129       -0.89426
H          3.04181       -1.65772        0.88855
H          4.14512       -0.52441        0.00271
