18
2-PENTANETHIOL.gamout	Energy:    -595.7170477
C         34.95076       30.03872       -0.07256
C         33.62542       29.24989       -0.06289
C         34.78326       31.56586        0.00193
C         32.75051       29.47642       -1.29887
S         34.09377       27.45709        0.12468
C         36.12088       32.31096        0.09295
H         35.56269       29.70130        0.79406
H         35.53055       29.76360       -0.98345
H         33.06114       29.53434        0.85267
H         34.21665       31.92856       -0.88413
H         34.15724       31.82031        0.88767
H         31.81818       28.87703       -1.24707
H         32.45029       30.54318       -1.38546
H         33.28953       29.18727       -2.22514
H         32.82411       26.95656        0.11157
H         35.97299       33.40935        0.14786
H         36.69224       32.00428        0.99499
H         36.76441       32.10539       -0.78928
