22
2-PHENYL-1-BUTENE.gamout	Energy:    -387.9837145
C          1.20356        3.98848        1.94035
C          1.82104        2.60837        2.10724
C          1.06727        1.54912        2.49107
C          3.28009        2.45377        1.82296
C          1.24580        4.51289        0.49350
C          3.78505        1.27701        1.21532
C          4.20847        3.47206        2.15362
C          5.15731        1.11504        0.97085
C          5.58223        3.31102        1.91110
C          6.06492        2.13095        1.31968
H          1.72575        4.71300        2.60624
H          0.15271        3.95531        2.29853
H          1.50472        0.54999        2.64589
H         -0.01236        1.66049        2.68306
H          0.78820        5.52144        0.41946
H          0.69156        3.83688       -0.19041
H          2.28756        4.58628        0.11843
H          3.08048        0.48755        0.90933
H          3.85476        4.40113        2.62730
H          5.51976        0.19123        0.49187
H          6.28161        4.11601        2.18848
H          7.14177        2.00675        1.12396
