19
2-PHENYLETHANOL.gamout	Energy:    -385.8008411
C          6.30830        1.71975       -0.93792
C          6.74400        0.44561       -0.53613
C          4.96519        2.09474       -0.75943
C          4.06439        1.18657       -0.17648
C          4.50558       -0.08607        0.22405
C          5.85185       -0.47808        0.05252
C          6.31550       -1.86346        0.45104
C          6.16402       -2.89242       -0.67804
O          6.62433       -4.14480       -0.19224
H          7.02340        2.42643       -1.38883
H          7.80104        0.16194       -0.67300
H          4.62278        3.09469       -1.06983
H          3.01094        1.47250       -0.02651
H          3.79397       -0.78915        0.68885
H          7.38415       -1.84461        0.75443
H          5.73924       -2.23330        1.32627
H          5.08990       -2.93109       -0.99271
H          6.74795       -2.54520       -1.56838
H          6.52779       -4.79442       -0.91182
