18
2-THIAHEXANE.gamout	Energy:    -595.7133284
S         -2.31119       -1.23721       -0.59131
C          0.36502       -0.49619       -0.59961
C          1.60612        0.08623        0.09916
C         -0.87338       -0.51942        0.30273
C          2.85235        0.10898       -0.79404
C         -3.57502       -1.12192        0.71920
H          0.58401       -1.53197       -0.94497
H          0.14047        0.09331       -1.51696
H          1.37813        1.11816        0.45101
H          1.81515       -0.50650        1.01858
H         -0.67972       -1.12662        1.21540
H         -1.13210        0.51022        0.63780
H          3.72908        0.53055       -0.25986
H          2.68873        0.72374       -1.70485
H          3.12703       -0.91327       -1.13149
H         -3.75527       -0.06951        1.02383
H         -3.29720       -1.72237        1.61098
H         -4.51396       -1.53188        0.29721
