32
3,3,5-TRIMETHYLHEPTANE.gamout	Energy:    -394.0141267
C          1.56048        1.56278        0.21965
C          1.22604        0.08697       -0.09734
C          2.29913       -0.83467        0.57103
C          3.77394       -0.57471        0.23527
C         -0.14228       -0.34177        0.52737
C         -1.49241        0.04070       -0.13033
C         -2.62132       -0.77081        0.55850
C         -4.00938       -0.66432       -0.08613
C         -1.80238        1.54809       -0.11753
C          1.22430       -0.13244       -1.62535
H          2.55941        1.84358       -0.17466
H          0.82930        2.26330       -0.22780
H          1.56952        1.74503        1.31593
H          2.16359       -0.76591        1.67495
H          2.05009       -1.88758        0.30649
H          4.42099       -1.32477        0.73622
H          3.97802       -0.64645       -0.85385
H          4.11567        0.42447        0.57573
H         -0.12932       -1.45432        0.58544
H         -0.15671        0.00418        1.58810
H         -1.46685       -0.29277       -1.19477
H         -2.31617       -1.84118        0.57519
H         -2.68051       -0.46209        1.62855
H         -4.73502       -1.33545        0.41898
H         -4.42593        0.36290       -0.02930
H         -3.98250       -0.95284       -1.15936
H         -1.08218        2.13078       -0.72484
H         -2.81069        1.75669       -0.53041
H         -1.77244        1.95391        0.91754
H          2.21881        0.08752       -2.06713
H          0.96708       -1.18235       -1.88378
H          0.49295        0.52886       -2.13503
