32
3,3-DIMETHYLOCTANE.gamout	Energy:    -394.0173610
C          3.33535        2.51627        3.93242
C          2.08331        2.09528        4.76117
C          1.77390        3.08849        5.92878
C          2.41971        0.72692        5.40215
C          0.85670        1.91271        3.84012
C          3.33967        3.87424        3.21223
C          0.97081        4.36299        5.62326
C          4.55882        4.06198        2.29501
C          4.60998        5.42898        1.59492
C          5.82421        5.60796        0.67543
H          4.22026        2.47757        4.60966
H          3.51390        1.71804        3.17449
H          1.21411        2.52179        6.70734
H          2.73931        3.36382        6.41205
H          3.26485        0.81738        6.11780
H          2.71218       -0.01870        4.63248
H          1.54913        0.31724        5.95722
H         -0.03504        1.59173        4.42008
H          1.05634        1.13144        3.07576
H          0.58638        2.84383        3.30153
H          2.41109        3.99791        2.61039
H          3.32618        4.69828        3.95963
H          1.45406        5.01349        4.86763
H          0.85173        4.96774        6.54699
H         -0.05046        4.13054        5.25653
H          4.57427        3.25403        1.52643
H          5.49162        3.91841        2.88901
H          3.67282        5.57527        1.01041
H          4.60224        6.23285        2.36636
H          6.77631        5.50762        1.23960
H          5.83800        4.84382       -0.13121
H          5.82811        6.60598        0.18991
