14
3,4-DICHLOROANILINE.gamout	Energy:   -1206.3943906
C          6.33940        1.87422       -0.69210
C          6.86115        0.60262       -0.34892
C          4.92937        2.03019       -0.72823
N          7.18647        2.94924       -0.92778
C          6.00732       -0.47161       -0.05309
C          4.60396       -0.30782       -0.09234
Cl         6.71126       -2.01553        0.36072
C          4.08429        0.95489       -0.43321
Cl         3.52011       -1.62868        0.26877
H          7.94830        0.43818       -0.30457
H          4.49320        3.00796       -0.98794
H          6.79774        3.73326       -1.45390
H          8.15175        2.73161       -1.17979
H          2.99212        1.08332       -0.46616
