24
3,4-DIMETHYL-CIS-2-HEXENE.gamout	Energy:    -314.2286178
C          1.29590       -1.14106       -0.12874
C          2.54931       -0.31062       -0.06799
C          3.09656        0.51737       -0.99412
C          2.52209        0.81521       -2.38979
C          2.44125       -0.42204       -3.32094
C          3.78460       -1.12117       -3.55782
C          1.18002        1.57607       -2.32677
C          4.37842        1.25666       -0.67510
H          1.53079       -2.22478       -0.02587
H          0.71514       -1.01525       -1.06174
H          0.61951       -0.89577        0.72070
H          3.10010       -0.39727        0.88912
H          3.24651        1.50951       -2.87578
H          2.02227       -0.08705       -4.29704
H          1.70907       -1.15162       -2.91169
H          4.52708       -0.42990       -4.01216
H          3.67543       -1.98703       -4.24398
H          4.21727       -1.50013       -2.60800
H          0.36824        0.95451       -1.89654
H          0.85757        1.89036       -3.34276
H          1.26431        2.48909       -1.70143
H          4.75178        1.03784        0.34610
H          4.23644        2.35836       -0.75811
H          5.18349        0.99608       -1.39899
