17
3,4-DIMETHYLPYRIDINE.gamout	Energy:    -326.6777807
C          3.05997        0.18780       -0.19673
C          4.34664       -0.38311       -0.24840
C          1.93694       -0.63732       -0.01743
N          2.01558       -1.97186        0.11159
C          3.24261       -2.51600        0.06221
C          4.44323       -1.79456       -0.11367
C          5.77470       -2.50431       -0.15574
C          5.57938        0.46713       -0.43900
H          2.93319        1.27859       -0.29629
H          0.92392       -0.19528        0.02407
H          3.29104       -3.61747        0.16959
H          6.45582       -2.14851        0.64760
H          5.64930       -3.59852       -0.03163
H          6.30167       -2.33142       -1.11915
H          5.32442        1.54190       -0.52321
H          6.28700        0.34883        0.40978
H          6.13459        0.17478       -1.35639
