12
3,4-DICHLORO-1-BUTENE.gamout	Energy:   -1076.0917045
C          0.66048        1.24858       -0.25189
C          2.01382        0.61840       -0.12999
C          2.52859       -0.05818       -1.40159
Cl         3.25238        1.93533        0.26249
C         -0.36385        0.99599        0.58220
Cl         1.51112       -1.49891       -1.81311
H          0.53456        1.95547       -1.09233
H          2.05059       -0.08961        0.72193
H          2.49256        0.63747       -2.26303
H          3.56827       -0.40909       -1.26125
H         -1.34520        1.47737        0.44691
H         -0.25907        0.29490        1.42751
