21
3,4-DIMETHYL-1-PENTENE.gamout	Energy:    -274.9421191
C          2.02653        2.07506        2.82557
C          2.19194        3.43507        2.06284
C          3.63719        3.88872        2.10640
C          1.58892        3.44225        0.65028
C          0.55524        1.75909        3.14525
C          2.71016        0.89853        2.10795
C          4.42161        4.23530        1.06806
H          2.54870        2.21422        3.80135
H          1.62366        4.17920        2.67412
H          4.07327        3.92516        3.12413
H          0.52357        3.13513        0.65995
H          2.13113        2.75700       -0.03417
H          1.63431        4.45834        0.20724
H         -0.03661        1.57162        2.22418
H          0.06788        2.59241        3.69501
H          0.47407        0.84862        3.77526
H          2.20561        0.65614        1.14816
H          2.68131       -0.01815        2.73361
H          3.77352        1.12144        1.88098
H          5.46478        4.55391        1.22579
H          4.06221        4.22344        0.02614
