26
3-(MMIM)PHO.gamout	Energy:    -610.6347023
H         -1.42383       -5.31756       -1.88729
C         -0.71131       -4.77777       -1.23969
H         -1.56585       -2.81000       -1.70904
H          2.45294       -1.73554       -1.12632
C         -0.82770       -3.37541       -1.12198
C          0.28079       -5.49309       -0.57297
H          2.77523        0.01365       -1.50118
C          2.45224       -0.70619       -0.72385
C          0.12616       -2.71008       -0.30109
C          1.29302       -4.86830        0.28448
N          1.09371       -0.37622       -0.29822
C          0.06162       -1.26639       -0.15312
H         -3.08314       -0.84437       -0.27889
C          1.13837       -3.41535        0.38380
C          0.64157        0.90967       -0.04404
N         -1.03765       -0.52181        0.18889
H          3.15406       -0.66453        0.13342
C         -0.69250        0.82038        0.25535
H          1.30150        1.78005       -0.10665
C         -2.35231       -1.05794        0.52704
H          1.83478       -2.89350        1.05915
H         -1.41872        1.59546        0.51733
H         -2.26042       -2.15393        0.64196
H         -2.70600       -0.60095        1.47242
O          2.20578       -5.49753        0.86824
H          0.34745       -6.58776       -0.68255
