12
3-CHLORO-1-BUTENE.gamout	Energy:    -616.5963188
C          1.86696        1.93641        2.46691
C          2.69364        2.07302        1.22188
C          3.49055        0.81994        0.86724
Cl         3.87588        3.47691        1.46127
C          0.54104        2.15939        2.52462
H          2.41780        1.62042        3.37224
H          2.05849        2.39191        0.37080
H          4.11623        0.98964       -0.03146
H          2.79533       -0.02201        0.66161
H          4.15652        0.52469        1.70401
H         -0.02984        2.48272        1.63688
H         -0.02540        2.02730        3.46048
