15
3-CHLORO-2-METHYL-1-BUTENE.gamout	Energy:    -655.8835675
C         29.93515       17.09048        0.14092
C         28.42429       17.05979       -0.00307
C         27.79490       15.68720       -0.01545
C         27.69501       18.19016       -0.13119
C         30.62397       18.44253        0.02563
Cl        30.39532       16.33896        1.77890
H         30.37246       16.37386       -0.58656
H         28.20259       15.06730       -0.84474
H         28.03040       15.14937        0.92671
H         26.69479       15.74049       -0.13109
H         26.60137       18.14357       -0.25977
H         28.14889       19.19256       -0.12081
H         31.71917       18.32645        0.13957
H         30.42320       18.88915       -0.97099
H         30.26740       19.14279        0.80704
