13
3-CHLOROPHENOL.gamout	Energy:    -766.7471992
Cl         2.60213       -0.38910       -0.18725
O         -2.44576       -1.43552       -0.18087
C         -1.43413       -0.52230       -0.13818
C         -0.07503       -0.89993       -0.17946
C         -1.78444        0.84265       -0.05023
C          0.91613        0.09540       -0.13213
C         -0.77409        1.81290       -0.00422
C          0.58715        1.45822       -0.04404
H          0.21422       -1.96052       -0.24877
H         -2.84902        1.11701       -0.01951
H         -1.05012        2.87704        0.06445
H          1.38048        2.21765       -0.00861
H         -2.06028       -2.33057       -0.24066
