21
3-ETHYL-1-PENTENE.gamout	Energy:    -274.9388962
C          1.20335        0.94810        2.07388
C          2.05035        2.16441        2.56535
C          3.54354        2.08642        2.14498
C          1.96366        2.29618        4.07001
C          0.46901        1.17004        0.74344
C          3.81886        2.02923        0.63666
C          1.49889        3.36392        4.74408
H          0.44514        0.70403        2.84986
H          1.85968        0.05022        2.00406
H          1.61647        3.09089        2.12077
H          4.06474        2.96886        2.57753
H          3.99853        1.19622        2.63806
H          2.32482        1.41916        4.64417
H         -0.24221        2.02010        0.81959
H         -0.11755        0.27279        0.45389
H          1.16310        1.39638       -0.09150
H          4.90986        2.05757        0.43361
H          3.42510        1.10101        0.17316
H          3.36042        2.89040        0.10491
H          1.46891        3.38496        5.84559
H          1.12954        4.26087        4.21645
