24
3-ETHYL-3-HEXENE.gamout	Energy:    -314.2322369
C          3.55351        3.00532        4.41929
C          3.56627        3.71283        3.04891
C          3.07793        2.83606        1.90399
C          1.56578        2.81475        1.73530
C          3.90876        2.11960        1.10625
C          0.98269        1.86633        0.68519
C          5.41359        2.03331        1.16810
C          5.92231        0.59835        1.41336
H          2.54288        2.62404        4.67682
H          4.24527        2.13768        4.42670
H          3.86446        3.69574        5.23170
H          2.91998        4.61814        3.10601
H          4.59160        4.08576        2.84352
H          1.11151        2.58637        2.72875
H          1.23409        3.85809        1.51648
H          3.45230        1.49841        0.31354
H          1.25529        0.80975        0.89025
H         -0.12499        1.92926        0.67029
H          1.34120        2.11223       -0.33641
H          5.83654        2.39483        0.20118
H          5.81903        2.70750        1.95152
H          5.57189        0.21083        2.39289
H          5.55482       -0.10052        0.63173
H          7.03172        0.55516        1.40535
