29
3-ETHYL-4-METHYLHEXANE.gamout	Energy:    -354.7346640
C          2.40355        3.93906        2.54223
C          3.67908        3.12800        2.14197
C          3.36395        1.66139        1.75249
C          4.79055        3.19643        3.21858
C          1.54888        3.23291        3.62255
C          1.56634        4.31860        1.30650
C          4.44363        0.98263        0.89741
C          5.47357        4.56308        3.36376
C          0.52217        4.13643        4.32128
H          2.76496        4.89413        2.99006
H          4.08526        3.62616        1.22850
H          2.40208        1.62512        1.19519
H          3.19564        1.06604        2.67826
H          5.56760        2.43808        2.97890
H          4.36831        2.88031        4.20018
H          2.22217        2.80115        4.39598
H          1.02459        2.36483        3.16297
H          1.19340        3.41760        0.77279
H          0.68031        4.92778        1.57978
H          2.16346        4.91158        0.58196
H          4.59682        1.52405       -0.06084
H          5.42612        0.94206        1.41338
H          4.16345       -0.06231        0.64856
H          5.95624        4.87527        2.41262
H          4.75883        5.36390        3.64863
H          6.26252        4.54043        4.14428
H         -0.22988        4.54361        3.61353
H          1.01582        5.00132        4.81461
H         -0.03402        3.57941        5.10376
