21
3-ETHYL-2-PENTENE.gamout	Energy:    -274.9501807
C          3.32382        0.61814        2.40851
C          3.11575        1.84547        1.53342
C          4.39296        2.60371        1.20467
C          1.89724        2.24772        1.09516
C          3.34960        0.93416        3.91858
C          4.26153        3.91421        0.42415
C          0.56513        1.59548        1.34897
H          4.28724        0.13591        2.12651
H          2.53570       -0.13843        2.20920
H          5.06594        1.90895        0.64674
H          4.93336        2.80186        2.16110
H          1.85035        3.16358        0.47931
H          4.13739        1.67575        4.16876
H          2.37974        1.35650        4.25520
H          3.54939        0.02125        4.51828
H          5.25832        4.37282        0.25888
H          3.63829        4.65556        0.96745
H          3.80086        3.75691       -0.57391
H         -0.12429        2.28807        1.88220
H          0.63614        0.66942        1.95346
H          0.05777        1.33604        0.39250
