26
3-ETHYLHEXANE.gamout	Energy:    -315.4526766
C          4.25820        2.62776        1.25184
C          2.76998        2.63266        1.68016
C          2.06746        1.31924        1.22460
C          2.04213        3.90296        1.17929
C          5.12363        3.78325        1.78136
C          1.13082        0.68618        2.26340
C          0.57513        4.05117        1.60250
C          6.61209        3.62557        1.44573
H          4.31334        2.60338        0.13726
H          4.71047        1.66754        1.59141
H          2.75416        2.65588        2.79737
H          1.50895        1.50968        0.27940
H          2.84615        0.57176        0.95401
H          2.11019        3.92482        0.06602
H          2.60137        4.79755        1.53015
H          4.99695        3.85345        2.88658
H          4.75916        4.75229        1.37478
H          0.30783        1.36922        2.55804
H          1.68310        0.42083        3.19048
H          0.66647       -0.24569        1.87683
H         -0.06668        3.24696        1.18589
H          0.46380        4.02779        2.70806
H          0.15551        5.01650        1.24943
H          7.02945        2.69144        1.87965
H          6.77915        3.57957        0.34788
H          7.21391        4.47217        1.83725
