19
3-HEPTYNE.gamout	Energy:    -273.7047315
C          5.69990        2.40796        1.39066
C          4.23556        2.33057        1.40844
C          3.01044        2.27748        1.44144
C          6.30827        3.28517        2.51342
C          1.54777        2.17449        1.46287
C          5.91318        4.76290        2.42920
C          1.01851        0.76901        1.10598
H          6.11799        1.37855        1.46505
H          6.03638        2.79738        0.40124
H          7.41502        3.18492        2.46479
H          6.00339        2.86709        3.49787
H          1.17507        2.46558        2.47142
H          1.11569        2.92316        0.76017
H          4.81141        4.88664        2.48399
H          6.25272        5.21900        1.47441
H          6.36204        5.34853        3.25795
H          1.39842        0.00862        1.81810
H         -0.09029        0.74921        1.13672
H          1.34261        0.47030        0.08852
