18
3-METHYL-1-PENTENE.gamout	Energy:    -235.6597925
C          3.63415        1.62063        2.82470
C          2.97023        2.96954        2.42218
C          1.53043        2.77343        1.99106
C          3.82980        3.70883        1.38666
C          2.99467        0.89035        4.01194
C          0.98639        3.09975        0.80312
H          4.70187        1.82856        3.06094
H          3.64338        0.95588        1.93118
H          2.94176        3.59283        3.35052
H          0.87564        2.29644        2.74422
H          3.92021        3.12584        0.44511
H          3.40348        4.70079        1.13052
H          4.85609        3.87351        1.77514
H          1.94376        0.59672        3.80978
H          3.55119       -0.04003        4.24945
H          2.99636        1.52047        4.92745
H          1.56661        3.58019       -0.00152
H         -0.07608        2.89851        0.58982
