21
3-METHYLPENTANOL.gamout	Energy:    -312.0478131
O         -0.74110        0.89418        3.33919
C          0.67512        0.28374       -0.19397
C         -0.11442        0.04612        1.11256
C          0.83085       -1.01303       -1.02349
C          0.04911        1.39690       -1.05502
C         -0.16855        1.23515        2.08217
C          1.65185       -2.12774       -0.36354
H          1.70287        0.61532        0.09349
H         -1.15748       -0.26073        0.85356
H          0.32409       -0.80499        1.67704
H          1.30524       -0.74216       -1.99371
H         -0.18442       -1.39266       -1.28523
H          0.02708        2.37435       -0.53112
H          0.61964        1.54204       -1.99655
H         -0.99687        1.14244       -1.33559
H          0.86553        1.58018        2.30364
H         -0.69784        2.10196        1.61372
H          1.78029       -2.98981       -1.05075
H          1.17185       -2.51729        0.55838
H          2.66688       -1.77098       -0.08504
H         -1.66151        0.61822        3.16927
