19
3-METHYLCYCLOHEXENE.gamout	Energy:    -273.7520776
C          0.58742        2.45287        1.26291
C          2.00772        2.54865        1.85051
C          2.88003        3.57117        1.09145
C          2.68740        1.19190        1.89963
C          4.35385        3.49299        1.51993
C          3.98909        0.98809        1.60404
C          4.94214        2.09949        1.22876
H          0.61223        2.07750        0.21724
H         -0.05095        1.76231        1.85352
H          0.09112        3.44633        1.25457
H          1.89829        2.90643        2.90502
H          2.80719        3.36489       -0.00186
H          2.47510        4.59565        1.24228
H          2.05793        0.33057        2.19009
H          4.95513        4.27673        1.01167
H          4.42512        3.70297        2.61109
H          4.39651       -0.03848        1.63782
H          5.20714        2.00697        0.14769
H          5.90658        1.96492        1.76869
