32
3-METHYL-3-ETHYLHEPTANE.gamout	Energy:    -394.0178017
C          0.82326        2.32846        2.12893
C          2.07919        1.63328        2.66868
C          3.38260        2.10463        2.00135
C          4.63129        1.41064        2.56900
C          6.01224        1.76561        1.93922
C          7.08934        0.98235        2.75262
C          6.04479        1.29682        0.46579
C          6.27905        3.29906        1.97122
C          8.56138        1.24573        2.40659
C          6.26604        3.97090        3.35093
H         -0.09718        1.96028        2.62829
H          0.70197        2.15605        1.03779
H          0.86873        3.42803        2.28400
H          2.15089        1.79697        3.76848
H          1.98055        0.53120        2.53886
H          3.30908        1.92999        0.90406
H          3.46736        3.20810        2.12493
H          4.67685        1.61240        3.66381
H          4.49426        0.30736        2.48454
H          6.87747       -0.10442        2.62986
H          6.93373        1.18645        3.83591
H          5.28877        1.82755       -0.14956
H          5.83932        0.20754        0.38968
H          7.03310        1.48825       -0.00169
H          7.25768        3.49313        1.47946
H          5.52869        3.79810        1.31840
H          9.22679        0.59632        3.01299
H          8.85802        2.29549        2.61153
H          8.78984        1.03852        1.34005
H          5.28511        3.86127        3.85894
H          6.46650        5.05911        3.26122
H          7.03766        3.55285        4.03140
