23
3-METHYLHEXANE.gamout	Energy:    -276.1749503
C          3.21000        3.33678        1.15573
C          4.04380        2.13876        1.66678
C          1.76806        3.42093        1.68180
C          5.53861        2.34081        1.32373
C          3.50540        0.79598        1.14109
C          6.50043        1.30499        1.92023
C          1.00336        4.64583        1.16240
H          3.74002        4.27725        1.43305
H          3.19693        3.32033        0.03983
H          3.95651        2.12877        2.78104
H          1.20644        2.50036        1.40768
H          1.78767        3.43983        2.79568
H          5.65093        2.36257        0.21428
H          5.83942        3.35413        1.67342
H          3.58897        0.74472        0.03276
H          4.06187       -0.06738        1.55965
H          2.43719        0.64800        1.40127
H          7.55408        1.54228        1.66466
H          6.42515        1.27513        3.02880
H          6.29862        0.27888        1.54781
H          0.92812        4.63527        0.05370
H         -0.02988        4.68584        1.56601
H          1.51009        5.59275        1.44802
