24
3-METHYL-3-HEXANOL.gamout	Energy:    -351.3400295
C          0.66128        1.47335        0.73836
C          0.49116        0.12381        0.02613
C          1.61405       -0.87607        0.42205
C          3.03864       -0.43876        0.06269
C         -0.88747       -0.51736        0.34488
C         -2.11997        0.27132       -0.12135
C         -3.43718       -0.48325        0.09910
O          0.58111        0.42355       -1.38157
H          1.63727        1.93197        0.48441
H         -0.12858        2.18330        0.42322
H          0.60450        1.34884        1.83894
H          1.53578       -1.09134        1.51120
H          1.38963       -1.84282       -0.08784
H          3.10015       -0.16360       -1.00994
H          3.36538        0.44433        0.64977
H          3.76821       -1.25158        0.25741
H         -0.90845       -1.52701       -0.13261
H         -0.95072       -0.71308        1.43977
H         -2.16801        1.24962        0.40577
H         -1.99177        0.51759       -1.19751
H         -3.44836       -1.45236       -0.44569
H         -3.60168       -0.71203        1.17424
H         -4.30949        0.10566       -0.25317
H          0.50261       -0.42673       -1.85717
