20
3-METHYLISOQUINOLINE.gamout	Energy:    -440.9262572
C         -2.62715       -1.50485        1.44094
C         -2.61975       -2.77248        2.25965
C         -1.64285       -1.21908        0.49526
N         -3.66999       -0.64699        1.68961
C         -1.69346       -0.00565       -0.25203
C         -3.73665        0.48410        1.00830
C         -2.79038        0.89069        0.01476
C         -0.72872        0.36666       -1.23732
C         -2.89062        2.11923       -0.70146
C         -0.85073        1.57084       -1.92028
C         -1.93613        2.45454       -1.65361
H         -3.55515       -3.34597        2.08756
H         -1.75547       -3.42304        2.02184
H         -2.59572       -2.52906        3.34293
H         -0.81815       -1.92933        0.31999
H         -4.59110        1.15319        1.23491
H          0.11341       -0.31266       -1.44802
H         -3.73437        2.79616       -0.48756
H         -0.10046        1.84857       -2.67798
H         -2.01388        3.40414       -2.20632
