21
3-METHYL-CIS-3-HEXENE.gamout	Energy:    -274.9509908
C          3.04583        1.57624        2.37865
C          3.79709        2.66650        2.08072
C          3.21306        4.00961        1.67284
C          5.30787        2.59793        2.12540
C          1.54353        1.44725        2.39668
C          3.26174        4.27803        0.15453
C          0.98984        1.03960        3.77592
H          3.59064        0.65283        2.65924
H          2.16236        4.09232        2.02144
H          3.77580        4.81568        2.19751
H          5.71922        3.31815        2.86854
H          5.76180        2.87014        1.14611
H          5.66922        1.58480        2.39346
H          1.06137        2.39072        2.06338
H          1.24224        0.67298        1.65213
H          2.85567        5.28300       -0.08674
H          2.66396        3.52685       -0.40280
H          4.29801        4.23638       -0.24180
H         -0.11094        0.89737        3.74558
H          1.21328        1.81137        4.54223
H          1.44052        0.08631        4.12633
