22
3-OCTYNE.gamout	Energy:    -312.9875321
C          3.39790        3.10746        1.44405
C          4.74499        3.68057        1.37749
C          5.88542        2.64889        1.54041
C          2.27297        2.62225        1.50164
C          7.28069        3.28594        1.46196
C          0.93073        2.03393        1.56212
C          8.42560        2.27915        1.62180
C          0.83130        0.63222        0.92689
H          4.84756        4.46600        2.16211
H          4.86980        4.21440        0.40665
H          5.78131        1.86650        0.75618
H          5.76149        2.12510        2.51423
H          7.36592        4.07358        2.24526
H          7.38467        3.81741        0.48845
H          0.60238        1.98556        2.62562
H          0.21028        2.72087        1.06195
H          8.37378        1.75737        2.60138
H          8.39692        1.49783        0.83229
H          9.41655        2.77513        1.56187
H          1.50896       -0.08432        1.43405
H          1.11229        0.65861       -0.14566
H         -0.20394        0.24058        1.00298
