21
4,4-DIMETHYL-1-PENTENE.gamout	Energy:    -274.9438505
C          3.37593        2.62624        2.38249
C          1.93239        2.03098        2.48866
C          3.52292        3.88016        1.56113
C          0.96300        3.05509        3.11900
C          2.00006        0.77948        3.39050
C          1.42193        1.62690        1.08935
C          4.25462        3.99166        0.43595
H          3.72836        2.83492        3.42037
H          4.05055        1.84145        1.97298
H          2.99190        4.77778        1.93128
H         -0.04397        2.60772        3.25979
H          0.83526        3.95486        2.48139
H          1.32157        3.39182        4.11562
H          2.69229        0.01802        2.97161
H          1.00049        0.30570        3.49159
H          2.35725        1.03344        4.41167
H          2.08351        0.86587        0.62250
H          1.38253        2.49965        0.40488
H          0.40148        1.19245        1.15111
H          4.33006        4.94395       -0.11392
H          4.81186        3.13157        0.02477
