24
4,4-DIMETHYL-1-HEXENE.gamout	Energy:    -314.2235169
C          0.86657        3.20517        2.22475
C          1.74717        2.14508        1.54911
C          3.25690        2.10876        1.93565
C          3.91484        3.48452        1.58262
C          3.42857        1.81043        3.44006
C          3.91764        0.97473        1.11910
C          5.40703        3.57403        1.77124
C          6.03182        4.37302        2.65726
H         -0.18682        3.10568        1.88898
H          1.18655        4.23968        1.98045
H          0.86552        3.10744        3.33045
H          1.68108        2.27050        0.44397
H          1.32254        1.13733        1.76193
H          3.43009        4.28178        2.18650
H          3.67535        3.70417        0.51502
H          2.97904        2.60286        4.07443
H          2.94806        0.84594        3.71129
H          4.50248        1.74375        3.71171
H          4.98347        0.83410        1.39333
H          3.87024        1.17884        0.02738
H          3.40002        0.00873        1.30062
H          6.02724        2.93572        1.11388
H          5.46219        5.03634        3.33152
H          7.13053        4.39974        2.73985
