29
4,4-DIMETHYLHEPTANE.gamout	Energy:    -354.7333563
C          4.73031        1.71551        1.64905
C          4.08530        2.66884        2.70135
C          3.01288        3.56304        2.00506
C          5.13782        3.61896        3.31507
C          3.43337        1.84834        3.83932
C          5.96126        0.88099        2.08637
C          1.83345        2.86789        1.30345
C          7.32538        1.50002        1.74484
C          0.83803        3.86589        0.69629
H          3.93702        1.01741        1.30405
H          5.00540        2.31868        0.75229
H          2.60355        4.26212        2.77128
H          3.53305        4.20898        1.25852
H          5.64443        4.22075        2.53033
H          4.66250        4.33091        4.02426
H          5.91842        3.06838        3.88009
H          2.91408        2.51557        4.56063
H          2.68848        1.12223        3.45270
H          4.19177        1.27323        4.41146
H          5.90214       -0.11581        1.59641
H          5.90717        0.67022        3.17817
H          2.21100        2.19738        0.50028
H          1.29514        2.21236        2.02390
H          7.42743        1.66103        0.64984
H          7.47565        2.48259        2.23674
H          8.16073        0.83989        2.06098
H         -0.00400        3.34965        0.18937
H          0.40165        4.52930        1.47411
H          1.32532        4.52266       -0.05696
