22
4,4-DIMETHYLCYCLOHEXENE.gamout	Energy:    -313.0345757
C          0.72256        2.15119        1.41867
C          2.15086        2.12644        1.99690
C          2.28511        0.93116        2.96642
C          2.43336        3.46285        2.73545
C          3.18154        1.98009        0.84208
C          3.85560        3.54856        3.31714
C          4.59283        2.34910        1.23535
C          4.89852        3.05098        2.34740
H          0.56951        3.02581        0.75053
H         -0.03777        2.20863        2.22698
H          0.51248        1.23443        0.82609
H          1.99968       -0.01775        2.46436
H          1.62242        1.05290        3.85077
H          3.32519        0.81107        3.33364
H          1.67895        3.61195        3.53968
H          2.28795        4.29563        2.01086
H          2.86711        2.61365       -0.02268
H          3.15977        0.93575        0.45325
H          3.92896        2.96757        4.26831
H          4.08428        4.59795        3.61105
H          5.40722        2.02744        0.56194
H          5.95659        3.27403        2.57301
