19
4,4-DIMETHYLCYCLOPENTENE.gamout	Energy:    -273.7447066
C          7.43646        3.82187        3.07140
C          6.43320        3.24108        4.09075
C          6.87209        3.59757        5.52081
C          4.99286        3.77315        3.75936
C          6.31354        1.69084        3.86793
C          4.36680        2.67032        2.93834
C          5.08859        1.53249        2.99728
H          8.45768        3.41630        3.23731
H          7.13735        3.57239        2.03124
H          7.49541        4.92850        3.15191
H          6.92255        4.69852        5.66470
H          6.16490        3.19245        6.27583
H          7.87938        3.18762        5.75085
H          4.40091        3.95216        4.68883
H          5.02273        4.75021        3.22624
H          6.17819        1.14739        4.83367
H          7.23368        1.26454        3.40735
H          3.41752        2.78895        2.39112
H          4.81475        0.58510        2.50519
