24
4,5-DIMETHYL-CIS-2-HEXENE.gamout	Energy:    -314.2293002
C          1.48020        1.09106       -0.72443
C          2.55378        0.20646       -0.15258
C          2.80264       -0.06627        1.14819
C          2.09311        0.45813        2.37895
C          1.54063       -0.71784        3.24740
C          0.88215       -0.23659        4.55324
C          0.55736       -1.59173        2.44878
C          3.05809        1.37598        3.16386
H          0.82637        0.52453       -1.42422
H          1.92369        1.91868       -1.32183
H          0.83137        1.54482        0.05068
H          3.21651       -0.27074       -0.89922
H          3.65252       -0.74250        1.36752
H          1.21692        1.07211        2.06684
H          2.41905       -1.35106        3.52119
H          0.04595        0.46636        4.34303
H          1.59427        0.28019        5.22759
H          0.45912       -1.09398        5.11778
H         -0.34841       -1.01073        2.16723
H          0.21893       -2.46356        3.04725
H          1.01241       -1.97438        1.51283
H          3.92004        0.80009        3.56709
H          2.55679        1.87466        4.01799
H          3.46753        2.16798        2.50411
