24
4,5-DIMETHYL-TRANS-2-HEXENE.gamout	Energy:    -314.2353181
C          1.11307        0.93707        0.01700
C          2.57226        0.62074        0.19161
C          3.56770        0.67708       -0.73032
C          4.99282        0.32275       -0.34160
C          5.59493       -0.92949       -1.03665
C          7.07773       -1.08995       -0.66149
C          4.79519       -2.20005       -0.70770
C          3.36472        1.09967       -2.16782
H          0.78963        1.73903        0.71802
H          0.48023        0.05217        0.25245
H          0.85590        1.26565       -1.00943
H          2.86240        0.30288        1.21160
H          5.65323        1.19261       -0.57181
H          5.04575        0.17234        0.76018
H          5.54550       -0.76824       -2.13898
H          7.19625       -1.24761        0.43318
H          7.66942       -0.19043       -0.93430
H          7.53479       -1.96238       -1.17447
H          4.82991       -2.41946        0.38245
H          5.20463       -3.08528       -1.23867
H          3.72688       -2.09512       -0.98861
H          2.33482        1.44748       -2.37670
H          3.58204        0.26687       -2.87311
H          4.06181        1.92375       -2.43924
