16
4-CHLORO-M-PHENYLENEDIAMINE.gamout	Energy:    -802.2188179
Cl        -2.83832        0.41238        0.27447
N         -1.36256       -2.19420        0.15695
N          3.08836       -0.24706       -0.09509
C         -0.54012       -1.09565        0.11880
C          1.71986       -0.09174       -0.00901
C          0.86744       -1.22034        0.03095
C         -1.08385        0.22104        0.16650
C          1.14177        1.20564        0.04100
C         -0.24968        1.34396        0.12786
H          1.30520       -2.23214       -0.00700
H          1.78313        2.10026        0.01141
H         -0.70453        2.34531        0.16633
H         -0.98450       -3.13629        0.12299
H         -2.36969       -2.05674        0.22017
H          3.70113        0.56296       -0.12401
H          3.51312       -1.16944       -0.13234
