22
4-ETHYLCYCLOHEXENE.gamout	Energy:    -313.0324431
C          1.06421        1.12113        1.70588
C          0.93561        1.78330        3.05740
C          2.21883        1.09821        1.00520
C          2.13228        2.70171        3.36686
C          3.48372        2.03809        3.01167
C          3.50444        1.72729        1.49580
C          3.79010        0.77363        3.84914
C          3.84771        0.99813        5.36598
H          0.16776        0.62647        1.29094
H          0.82870        0.99767        3.84406
H         -0.01484        2.36079        3.10684
H          2.24109        0.60655        0.01604
H          2.11256        3.01772        4.43152
H          2.03350        3.63564        2.76966
H          4.29141        2.77603        3.22402
H          4.36529        1.06399        1.25156
H          3.69228        2.66382        0.91843
H          4.76831        0.36654        3.50720
H          3.04340       -0.01786        3.61429
H          4.57857        1.79283        5.63125
H          4.15768        0.07314        5.89557
H          2.86553        1.29984        5.78585
