20
4-HYDROXYPHENYLACETAMIDE.gamout	Energy:    -515.1194794
O         -3.15586       -0.16350        1.29058
O          3.18617        0.65181       -3.14010
N          2.42148        0.72069       -0.98668
C         -0.23060        0.02123       -1.73863
C          0.84675        0.12249       -2.79511
C         -0.40829       -1.16274       -0.98811
C         -1.06635        1.12112       -1.42939
C         -1.37386       -1.25075        0.02780
C         -2.03722        1.04846       -0.42166
C         -2.19830       -0.14271        0.31855
C          2.27006        0.52777       -2.33323
H          0.97564       -0.84498       -3.32581
H          0.57292        0.85711       -3.58127
H          0.22329       -2.04080       -1.20317
H         -0.95600        2.05911       -1.99868
H         -1.49413       -2.18994        0.59515
H         -2.68916        1.90501       -0.19194
H          3.34125        0.99112       -0.63568
H          1.63411        0.63795       -0.34225
H         -3.14584       -1.03986        1.72075
