24
4-METHYL-TRANS-3-HEPTENE.gamout	Energy:    -314.2340315
C          1.31333        1.10803        0.13683
C          2.00957       -0.13071       -0.45954
C          2.52951       -1.07990        0.58946
C          3.80771       -1.47062        0.82643
C          4.11248       -2.44852        1.94912
C          4.61012       -3.83556        1.48504
C          4.87225       -4.79985        2.64860
C          5.00254       -0.99543        0.03028
H          0.88812        1.75621       -0.65828
H          2.02280        1.71973        0.73265
H          0.47944        0.81881        0.81184
H          2.82354        0.19178       -1.14274
H          1.27505       -0.67527       -1.09872
H          1.75157       -1.49678        1.25972
H          3.20152       -2.58804        2.57258
H          4.88542       -2.00362        2.62106
H          5.54302       -3.72257        0.88901
H          3.85441       -4.27205        0.79434
H          5.64597       -4.39996        3.33886
H          5.22593       -5.78858        2.28877
H          3.95391       -4.97406        3.25000
H          5.78561       -0.58435        0.70531
H          4.74801       -0.21255       -0.71016
H          5.48225       -1.83155       -0.52560
