18
4-METHYL-1-PENTENE.gamout	Energy:    -235.6622627
C          3.09348        1.45344        1.24117
C          4.37533        1.87899        2.00638
C          1.81848        2.04682        1.78002
C          4.61602        3.39521        1.92503
C          5.59669        1.09238        1.50260
C          0.93529        2.78464        1.08114
H          3.01893        0.34165        1.29597
H          3.20603        1.70573        0.16213
H          4.21941        1.61377        3.07941
H          1.60620        1.83793        2.84730
H          5.50079        3.69485        2.52518
H          4.80296        3.70944        0.87449
H          3.74142        3.97012        2.29329
H          6.51150        1.35723        2.07336
H          5.44614       -0.00401        1.59556
H          5.79809        1.31303        0.43129
H          0.01448        3.17593        1.54372
H          1.09946        3.02114        0.01529
