19
4-METHYL-1-HEXYNE.gamout	Energy:    -273.6932383
C         -0.12281       19.82737        0.12885
C          0.90311       19.16706        0.02641
C          2.12173       18.36710       -0.10753
C          2.38361       17.82187       -1.54119
C          2.53949       18.97231       -2.54801
C          3.61022       16.88289       -1.56849
C          3.46219       15.57881       -0.77371
H         -1.02683       20.41202        0.22592
H          2.99879       18.97834        0.21109
H          2.06417       17.52077        0.61238
H          1.48815       17.22550       -1.83302
H          2.65737       18.58689       -3.58218
H          1.65659       19.64285       -2.53044
H          3.43635       19.58791       -2.31637
H          3.82409       16.63510       -2.63190
H          4.50178       17.44703       -1.20840
H          4.34962       14.92551       -0.90419
H          3.35131       15.75565        0.31672
H          2.57330       15.00209       -1.10790
