16
4-METHYL-2-PENTYNE.gamout	Energy:    -234.4223715
C          1.97757        4.25126        1.06039
C          2.10621        2.99786        1.95742
C          0.90512        2.04253        1.76894
C          3.38517        2.30289        1.73606
C          4.44724        1.72275        1.53939
C          5.71675        1.03488        1.31544
H          1.03256        4.78957        1.28219
H          2.82313        4.95011        1.22037
H          1.96986        3.96645       -0.01248
H          2.09757        3.34341        3.01855
H          0.85859        1.67332        0.72313
H          0.98271        1.16066        2.43664
H         -0.04822        2.56506        1.99362
H          6.26540        1.45883        0.44669
H          6.38571        1.11471        2.19953
H          5.56474       -0.04743        1.11311
