16
4-METHYLCYCLOPENTENE.gamout	Energy:    -234.4616329
C          0.50911        2.93376        1.59900
C          1.96417        2.53469        1.86279
C          2.62139        1.68106        0.73586
C          3.58947        0.78945        1.48416
C          3.35364        0.80341        2.81264
C          2.18982        1.70540        3.16373
H         -0.13934        2.03703        1.48884
H          0.09504        3.54435        2.42931
H          0.41154        3.53168        0.66800
H          2.57092        3.46320        1.96294
H          1.85927        1.06453        0.19807
H          3.11081        2.30607       -0.04355
H          4.35830        0.17759        0.98536
H          3.90193        0.20415        3.55739
H          1.28766        1.09585        3.41800
H          2.38205        2.34764        4.05157
