16
4-METHYL-1,3-PENTADIENE.gamout	Energy:    -234.4474174
C          1.61657        0.64773        0.96086
C          1.97088        1.79741        1.87234
C          3.19931        1.97708        2.44277
C          0.85004        2.77522        2.12829
C          4.37634        1.13320        2.29768
C          5.56905        1.37231        2.89676
H          1.28188        1.02356       -0.03220
H          0.76146        0.06675        1.37403
H          2.45240       -0.05676        0.79122
H          3.32976        2.86320        3.09234
H          1.15613        3.60089        2.80138
H          0.48511        3.22378        1.17632
H         -0.02894        2.26615        2.58556
H          4.28886        0.23849        1.65528
H          5.71942        2.24913        3.54980
H          6.43039        0.70139        2.75375
