32
4-METHYL-4-ETHYLHEPTANE.gamout	Energy:    -394.0161480
C         -0.14290       39.75746        0.26570
C          1.38467       39.80380        0.12286
C          1.94286       41.22969        0.27962
C          3.47553       41.44569        0.09263
C          3.80297       42.94843        0.34827
C          4.23802       40.58104        1.14389
C          3.89976       41.03952       -1.33846
C          3.12661       43.99819       -0.55117
C          3.58297       45.42807       -0.22780
C          5.77079       40.67891        1.16257
H         -0.53653       38.72497        0.15776
H         -0.46942       40.13461        1.25918
H         -0.64223       40.38607       -0.50311
H          1.66832       39.39098       -0.87132
H          1.83842       39.12543        0.87860
H          1.66090       41.61038        1.29021
H          1.40723       41.88096       -0.44750
H          4.90398       43.08884        0.25786
H          3.55523       43.17837        1.41150
H          3.96278       39.51593        0.98040
H          3.84772       40.84429        2.15428
H          3.24353       41.50106       -2.10608
H          4.94055       41.35389       -1.56547
H          3.85072       39.93947       -1.48292
H          2.02096       43.94137       -0.44624
H          3.34689       43.77771       -1.61950
H          3.08449       46.17605       -0.87928
H          4.67980       45.54661       -0.36395
H          3.35193       45.69672        0.82556
H          6.19388       39.98304        1.91711
H          6.13096       41.69560        1.42349
H          6.21884       40.40640        0.18380
