29
4-METHYLOCTANE.gamout	Energy:    -354.7403598
C          4.52223        0.26509        0.06835
C          3.17663       -0.13054       -0.55302
C          1.96865        0.18288        0.34573
C          0.62446       -0.26046       -0.25285
C         -0.63622        0.12160        0.55821
C         -1.91032       -0.26428       -0.22887
C         -3.24234        0.21606        0.37064
C         -4.45747       -0.13106       -0.50034
H          4.69606       -0.27220        1.02526
H          5.37192        0.02955       -0.60581
H          4.56313        1.35348        0.28900
H          3.04864        0.38607       -1.53162
H          3.18164       -1.21931       -0.78923
H          2.12289       -0.30639        1.33363
H          1.94081        1.27859        0.55200
H          0.52762        0.17140       -1.27528
H          0.63588       -1.36727       -0.39660
C         -0.62419       -0.48691        1.97219
H         -0.63625        1.23380        0.66764
H         -1.82163        0.13672       -1.26471
H         -1.93808       -1.37463       -0.34094
H         -3.38177       -0.22521        1.38196
H         -3.19802        1.31876        0.52536
H         -4.37709        0.32649       -1.50969
H         -4.55171       -1.22905       -0.64333
H         -5.40387        0.22788       -0.04470
H          0.26992       -0.17468        2.54925
H         -0.62255       -1.59868        1.92527
H         -1.51133       -0.17817        2.56193
