24
4-METHYL-2-ETHYL-1-PENTENE.gamout	Energy:    -314.2305921
C          0.41458       19.33589        1.37047
C          0.84827       19.44865       -0.10356
C          0.90779       20.87290       -0.63452
C          1.92489       21.81289       -0.01208
C          0.07739       21.28351       -1.61935
C          3.41231       21.40336       -0.19252
C          3.81337       21.34090       -1.67555
C          4.33152       22.35216        0.59488
H          0.36403       18.27330        1.68716
H          1.12167       19.84896        2.05520
H         -0.58852       19.78497        1.52572
H          0.15561       18.85770       -0.73989
H          1.84934       18.97345       -0.22093
H          1.78167       22.83588       -0.42531
H          1.72332       21.89268        1.08144
H          0.10800       22.31570       -2.00733
H         -0.66479       20.60169       -2.06823
H          3.53552       20.38346        0.24098
H          4.86446       21.00338       -1.79409
H          3.16329       20.64992       -2.25068
H          3.72843       22.34467       -2.14669
H          5.39555       22.04581        0.51194
H          4.06930       22.37562        1.67381
H          4.25314       23.39245        0.20973
