21
4-METHYL-1-HEXENE.gamout	Energy:    -274.9392776
C          2.75837        1.78270        3.24125
C          4.23587        2.06196        2.83553
C          4.42628        3.32601        1.95645
C          4.93598        0.81916        2.25783
C          1.80072        1.34834        2.16107
C          4.00842        3.22852        0.48125
C          0.59173        1.89369        1.92543
H          2.78720        0.97358        4.01073
H          2.34960        2.67932        3.75823
H          4.74650        2.29309        3.79904
H          5.50283        3.60866        2.00280
H          3.87891        4.16777        2.43805
H          6.01260        1.01895        2.07133
H          4.87401       -0.03971        2.95967
H          4.49299        0.49000        1.29465
H          2.11583        0.48437        1.54568
H          4.57620        2.44284       -0.06020
H          2.92934        3.00143        0.36882
H          4.20569        4.18767       -0.04207
H         -0.07643        1.50452        1.13999
H          0.22244        2.75266        2.51313
