32
4-METHYLNONANE.gamout	Energy:    -394.0216502
C          2.58024        1.40800        1.45356
C          1.23447        1.80741        2.11413
C          3.85179        1.67600        2.27898
C          1.01434        3.33684        2.19944
C          1.04938        1.15110        3.49411
C          5.14980        1.42821        1.49389
C          0.88069        4.06528        0.85273
C          6.42918        1.60903        2.32648
C          0.60844        5.56814        0.99806
C          7.71974        1.41048        1.52086
H          2.54043        0.32283        1.20407
H          2.67384        1.92789        0.47371
H          0.43261        1.40907        1.44823
H          3.85138        2.72628        2.65080
H          3.85037        1.03581        3.18933
H          1.83681        3.80158        2.79251
H          0.08934        3.52073        2.79357
H          1.75808        1.56465        4.24291
H          1.21266        0.05300        3.45009
H          0.02417        1.32200        3.88534
H          5.18126        2.11593        0.61699
H          5.13376        0.39928        1.06444
H          0.05976        3.59373        0.26474
H          1.80254        3.92020        0.24593
H          6.40994        0.89734        3.18305
H          6.42691        2.62522        2.78323
H         -0.32743        5.75811        1.56677
H          0.50418        6.06427        0.01063
H          1.43259        6.07773        1.54222
H          8.62322        1.54433        2.15134
H          7.78617        2.13701        0.68285
H          7.76808        0.39222        1.07854
