22
4-OCTYNE.gamout	Energy:    -312.9878392
C          4.33436        0.99481        1.82753
C          3.10875        0.98704        1.87746
C          1.64317        0.97841        1.93528
C          5.79826        1.02099        1.76246
C          0.96149        2.06761        1.06997
C          6.38170        2.32711        1.17231
C          1.29437        3.49958        1.49950
C          7.91308        2.32278        1.12229
H          1.27210       -0.02361        1.62143
H          1.31841        1.09915        2.99543
H          6.15908        0.15386        1.16136
H          6.21380        0.86444        2.78538
H          1.25420        1.91277        0.00820
H         -0.13755        1.90267        1.11776
H          5.96364        2.47498        0.15280
H          6.02070        3.18579        1.77930
H          2.38736        3.68792        1.45274
H          0.96686        3.69848        2.54293
H          0.79393        4.24385        0.84586
H          8.29822        1.48926        0.49649
H          8.35299        2.20581        2.13596
H          8.30739        3.26833        0.69612
