24
5,5-DIMETHYL-1-HEXENE.gamout	Energy:    -314.2253791
C         -0.29934       -0.30397        0.08240
C         -1.84521       -0.47444       -0.00006
C          0.23769        1.13230        0.26961
C         -2.14398       -1.97667       -0.20726
C         -2.52013       -0.00772        1.30931
C         -2.42533        0.31835       -1.19297
C          1.73744        1.17850        0.40784
C          2.58087        1.82860       -0.41535
H          0.15222       -0.73173       -0.84096
H          0.07266       -0.93715        0.92088
H         -0.22082        1.57282        1.18482
H         -0.07178        1.77549       -0.58220
H         -3.23730       -2.16340       -0.27145
H         -1.68236       -2.35542       -1.14424
H         -1.74828       -2.58781        0.63225
H         -3.61410       -0.19871        1.28078
H         -2.38124        1.07991        1.48443
H         -2.10957       -0.54667        2.19019
H         -1.93911        0.02295       -2.14759
H         -3.51482        0.12943       -1.29892
H         -2.29248        1.41357       -1.07077
H          2.16158        0.61220        1.26040
H          3.67111        1.81408       -0.25537
H          2.20964        2.40489       -1.28094
