18
5-AMINOLEVULINIC_ACID.gamout	Energy:    -476.0431391
O         -2.02153       -0.50679       -0.66463
O          2.90667        0.51500        0.06497
O          2.38497       -1.62983        0.56070
N         -4.20101       -1.64542        0.70531
C         -0.36975       -0.92301        1.04494
C          0.59329        0.00089        0.30030
C         -1.77829       -0.93648        0.45565
C         -2.89166       -1.54363        1.32428
C          2.02874       -0.48485        0.34130
H         -0.41723       -0.69875        2.13313
H          0.02237       -1.96576        0.98332
H          0.54740        1.04994        0.65705
H          0.28068        0.03928       -0.76910
H         -2.54885       -2.54483        1.67645
H         -2.95251       -0.93136        2.25598
H         -4.11599       -2.21868       -0.14684
H         -4.45870       -0.71455        0.34546
H          3.79567        0.09424        0.06859
