24
5-ETHYL-M-XYLENE.gamout	Energy:    -389.2180398
C          1.00088        4.24472        1.93853
C          1.74740        4.01249        0.61042
C          3.22409        3.71217        0.79742
C          3.67355        2.38353        0.96395
C          4.17183        4.75214        0.85181
C          5.03193        2.08570        1.18436
C          5.54329        4.49309        1.06833
C          5.50624        0.65957        1.36166
C          5.95242        3.15591        1.23537
C          6.54693        5.62560        1.09354
H         -0.07446        4.45955        1.76355
H          1.06814        3.35271        2.59577
H          1.43167        5.10087        2.49909
H          1.26818        3.17052        0.06463
H          1.63357        4.90918       -0.03730
H          2.94143        1.55848        0.91880
H          3.83453        5.79500        0.71842
H          6.25696        0.38241        0.59049
H          5.99428        0.51425        2.34970
H          4.66944       -0.06384        1.29128
H          7.02132        2.93883        1.40605
H          7.51744        5.30366        1.52132
H          6.74706        6.00912        0.06862
H          6.17930        6.48613        1.69113
