17
5-HEXEN-2-ONE.gamout	Energy:    -309.6254410
O         -2.38560        0.71924        1.32060
C         -0.68056       -0.11282       -0.16466
C          0.33145        0.78393        0.56291
C         -2.10142       -0.01783        0.38801
C          1.73935        0.62885        0.05141
C         -3.16401       -0.88775       -0.28184
C          2.51142        1.62179       -0.42820
H         -0.72461        0.12347       -1.25425
H         -0.37435       -1.18565       -0.13003
H          0.29338        0.53396        1.64779
H          0.00500        1.84267        0.49037
H          2.15684       -0.39720        0.08368
H         -3.97098       -0.23398       -0.67298
H         -3.62798       -1.53975        0.48710
H         -2.77180       -1.51668       -1.10498
H          3.54068        1.43801       -0.77690
H          2.14351        2.66150       -0.48386
