24
5-METHYL-1-HEPTENE.gamout	Energy:    -314.2249970
C          4.04049        2.53690        2.15801
C          5.28783        2.12023        1.34410
C          6.57244        2.14087        2.20664
C          5.11334        0.74348        0.67916
C          2.76658        2.78703        1.32126
C          7.02001        3.52362        2.69895
C          1.58637        3.21775        2.15262
C          0.92660        4.38499        2.03237
H          3.83489        1.75314        2.92518
H          4.26430        3.46412        2.72822
H          5.42376        2.87664        0.53267
H          7.39816        1.68947        1.61186
H          6.43003        1.45916        3.07810
H          4.21536        0.70059        0.02923
H          5.01199       -0.05722        1.44456
H          5.99040        0.48967        0.04717
H          2.49669        1.85373        0.77531
H          2.97821        3.55482        0.54350
H          7.96572        3.45686        3.27600
H          7.19829        4.21702        1.84859
H          6.26847        4.00040        3.36209
H          1.25360        2.49722        2.92551
H          1.21923        5.13601        1.27767
H          0.06899        4.63321        2.67861
