21
5-METHYL-TRANS-2-HEXENE.gamout	Energy:    -274.9507399
C          0.69288        1.61465        1.64465
C          2.11418        1.02825        1.66377
C          2.58609        0.75560        3.10087
C          3.10082        1.95188        0.89918
C          4.47126        1.36452        0.68690
C          5.63249        1.89290        1.12665
C          7.00036        1.31016        0.90772
H          0.66113        2.59805        2.16383
H          0.32791        1.77406        0.60788
H         -0.02991        0.94546        2.15736
H          2.08640        0.05276        1.12165
H          1.90653        0.04933        3.62297
H          2.60994        1.69575        3.69518
H          3.60837        0.32455        3.11985
H          2.64947        2.18405       -0.09447
H          3.18756        2.92327        1.43773
H          4.50797        0.41425        0.11616
H          5.59061        2.84262        1.69622
H          7.65938        2.01428        0.35196
H          7.51363        1.10692        1.87419
H          6.95906        0.36001        0.33662
