24
6-METHYL-CIS-2-HEPTENE.gamout	Energy:    -314.2273457
C         -1.39063       -2.37024       -0.00999
C          0.01427       -1.96318       -0.36135
C          0.42855       -0.78749       -0.88623
C         -0.41008        0.40357       -1.28111
C          0.14088        1.78554       -0.85200
C          0.10185        2.15154        0.65468
C         -1.31163        2.02866        1.25288
C          1.13477        1.38577        1.50193
H         -1.71615       -3.24528       -0.61621
H         -2.12952       -1.56050       -0.17230
H         -1.46230       -2.68856        1.05378
H          0.78949       -2.72821       -0.16779
H          1.51177       -0.67899       -1.08689
H         -1.45669        0.28452       -0.92904
H         -0.47262        0.41764       -2.39562
H         -0.44104        2.55862       -1.40252
H          1.18950        1.88094       -1.21738
H          0.38255        3.23016        0.70184
H         -1.63778        0.96834        1.31566
H         -2.06401        2.57818        0.64716
H         -1.34768        2.44111        2.28329
H          1.14326        1.75848        2.54869
H          2.16184        1.50711        1.09670
H          0.91372        0.29879        1.53218
