50
7,8-DIMETHYLTETRADECANE.gamout	Energy:    -629.7145248
C          8.32209        0.96152        0.34117
C          6.91499        1.57042        0.39120
C          5.79812        0.56353        0.07644
C          4.38064        1.15375        0.13430
C          3.27204        0.12541       -0.13825
C          1.85054        0.70883       -0.05468
C          0.70009       -0.32769       -0.12166
C         -0.70009        0.32770        0.12165
C         -1.85054       -0.70882        0.05468
C         -3.27204       -0.12541        0.13825
C         -4.38064       -1.15375       -0.13429
C         -5.79812       -0.56354       -0.07643
C         -6.91498       -1.57044       -0.39119
C         -8.32209       -0.96154       -0.34116
H          8.42689        0.12745        1.06821
H          8.54981        0.54964       -0.66550
H          9.10455        1.71153        0.57992
H          6.73484        2.01151        1.39831
H          6.85320        2.42340       -0.32287
H          5.97388        0.12237       -0.93244
H          5.86461       -0.29118        0.78974
H          4.21617        1.61549        1.13587
H          4.30005        1.99212       -0.59643
H          3.44753       -0.33590       -1.13551
H          3.36186       -0.70805        0.59782
H          1.78025        1.27588        0.89774
H          1.70588        1.46197       -0.86517
C          0.75690       -1.10784       -1.44981
H          0.86194       -1.05404        0.71252
C         -0.75690        1.10788        1.44979
H         -0.86195        1.05404       -0.71254
H         -1.78026       -1.27589       -0.89772
H         -1.70588       -1.46195        0.86519
H         -3.44754        0.33591        1.13550
H         -3.36187        0.70804       -0.59783
H         -4.21617       -1.61550       -1.13585
H         -4.30005       -1.99212        0.59644
H         -5.97389       -0.12238        0.93245
H         -5.86462        0.29116       -0.78973
H         -6.73484       -2.01152       -1.39830
H         -6.85320       -2.42341        0.32288
H         -9.10455       -1.71156       -0.57991
H         -8.54981       -0.54966        0.66551
H         -8.42689       -0.12747       -1.06819
H         -0.02400        1.93719        1.48963
H         -0.55283        0.43500        2.31226
H         -1.75630        1.55883        1.61246
H          1.75629       -1.55882       -1.61247
H          0.55285       -0.43496       -2.31228
H          0.02398       -1.93714       -1.48967
