27
9-METHYLANTHRACENE.gamout	Energy:    -578.4195619
C          5.72960        2.30024        3.70026
C          4.27135        2.15025        4.07791
C          3.81662        2.56812        5.36548
C          3.34746        1.56422        3.16081
C          2.40966        2.42924        5.72174
C          4.69569        3.12406        6.36079
C          1.94207        1.43188        3.52674
C          3.73885        1.07332        1.86530
C          1.51086        1.87254        4.79232
C          1.96542        2.85895        7.01862
C          4.23031        3.52496        7.60105
C          1.02173        0.84882        2.59043
C          2.82251        0.51567        0.99086
C          2.84765        3.39376        7.93785
C          1.44456        0.40245        1.35289
H          5.86339        2.44931        2.61179
H          6.32375        1.40262        3.98371
H          6.19726        3.17132        4.19731
H          5.76692        3.22756        6.13619
H          4.79442        1.13321        1.56340
H          0.44817        1.76640        5.06688
H          0.89703        2.74703        7.26596
H          4.93056        3.94926        8.33824
H         -0.03676        0.76293        2.88614
H          3.15644        0.15412        0.00510
H          2.49328        3.71634        8.92971
H          0.72821       -0.04458        0.64552
