7
AC-1.gamout	Energy:    -228.3383519
C         -4.72872        1.30165        0.00377
C         -4.71735       -0.29109        0.00569
H         -5.45705       -0.68063        0.74342
H         -3.71181       -0.70833        0.23879
H         -5.04389       -0.67459       -0.98903
O         -3.61056        1.85646        0.18346
O         -5.86820        1.80964       -0.18620
