7
ACETALDEHYDE.gamout	Energy:    -153.7146640
C          0.59590        0.82809        0.70523
C          2.02075        1.10397        1.12720
O          2.60199        2.16042        0.97710
H         -0.00573        0.52874        1.59146
H          0.15036        1.72004        0.22454
H          0.57222       -0.03742        0.00725
H          2.54156        0.22091        1.61768
