6
ACETONITRILE.gamout	Energy:    -132.6516519
C          0.40535        0.89522        0.51968
C          1.86498        0.94248        0.48972
N          3.03555        0.98003        0.46550
H         -0.02243        1.78882        0.02126
H          0.03514       -0.00915       -0.00468
H          0.03798        0.86845        1.56577
