9
ACETAMIDE.gamout	Energy:    -209.0647591
C          2.48384        2.53003        0.83447
C          1.95768        1.10474        0.65542
N          0.63065        0.92495        0.97195
O          2.66812        0.18862        0.25333
H          2.98897        2.83790       -0.10219
H          1.70885        3.27901        1.09265
H          3.25788        2.52482        1.62903
H          0.25608       -0.02520        0.93324
H          0.06074        1.65657        1.39473
