23
ACRIDINE.gamout	Energy:    -555.1690106
N         -0.00001        1.38037       -0.00000
C         -1.22147       -0.76493        0.00000
C          1.22150       -0.76490       -0.00000
C         -1.16167        0.69349        0.00000
C          1.16167        0.69352       -0.00000
C          0.00002       -1.46556       -0.00000
C         -2.50186       -1.41230       -0.00000
C          2.50191       -1.41224       -0.00000
C         -2.39867        1.42580        0.00000
C          2.39866        1.42585        0.00000
C         -3.66755       -0.66740       -0.00000
C          3.66758       -0.66731        0.00000
C         -3.61322        0.76422        0.00000
C          3.61321        0.76430        0.00000
H          0.00004       -2.56936       -0.00000
H         -2.53768       -2.51429        0.00000
H          2.53776       -2.51423        0.00000
H         -2.33302        2.52444       -0.00000
H          2.33299        2.52449       -0.00000
H         -4.64614       -1.17287        0.00000
H          4.64618       -1.17277        0.00000
H         -4.55242        1.34026       -0.00000
H          4.55241        1.34036       -0.00000
