9
ACRYLIC_ACID.gamout	Energy:    -266.9723188
C          2.70090        2.33801        0.22071
C          1.82018        1.14352        0.36864
O          0.50915        1.47428        0.19361
O          2.18775        0.00602        0.61342
C          4.03589        2.22888        0.35636
H          2.20859        3.29850       -0.00191
H          0.01054        0.63495        0.30786
H          4.70150        3.09969        0.25049
H          4.48791        1.24799        0.57941
