10
ACRYLAMIDE.gamout	Energy:    -247.1173479
C          3.17620        1.97410        0.13200
C          1.67549        2.08105        0.19595
N          1.01552        0.87881        0.08211
O          1.08250        3.14882        0.34476
C          3.94103        3.07746        0.21903
H          3.63356        0.97466        0.01609
H         -0.00500        0.88459        0.11184
H          1.49867       -0.00389       -0.07918
H          3.45305        4.05952        0.33848
H          5.04038        3.03220        0.17614
