16
ADIPONITRILE.gamout	Energy:    -342.6688352
C         80.06481       -0.00894       -0.00014
C         81.53063       -0.05351        0.00033
C         79.49718        1.42865        0.00012
N         82.70241       -0.07128       -0.00005
C         77.96308        1.44267       -0.00012
C         77.39543        2.88026        0.00014
C         75.92961        2.92480       -0.00033
N         74.75783        2.94255        0.00005
H         79.70257       -0.57001       -0.88997
H         79.70186       -0.57049        0.88909
H         79.88322        1.97169        0.88991
H         79.88349        1.97213       -0.88928
H         77.57703        0.89962       -0.88990
H         77.57677        0.89918        0.88928
H         77.75766        3.44132        0.88997
H         77.75837        3.44181       -0.88909
