5
ALCL4-1.gamout	Energy:   -2083.1483601
Al        -1.99067       -1.83297       -1.13152
Cl        -3.98850       -0.98761       -0.90496
Cl        -0.98640       -0.87813       -2.81569
Cl        -0.84515       -1.48399        0.69126
Cl        -2.14588       -3.97760       -1.49619
