24
ALFA_D-FRUCTOPYRANOSE.gamout	Energy:    -686.6688738
C         -2.12847        2.43602       -1.93747
O         -2.39330        1.02477       -1.89505
C         -1.28309        2.82418       -3.15576
C         -1.40589        2.84649       -0.63743
H         -3.12000        2.93657       -1.98841
O          0.03095        2.24490       -3.06980
H         -1.23115        3.92897       -3.24896
H         -1.73210        2.40154       -4.07786
C          0.02699        2.29452       -0.66859
O         -2.07239        2.34403        0.51688
H         -1.36320        3.95180       -0.55586
H         -0.05577        1.17678       -0.72223
O          0.77866        2.67175        0.47423
C          0.81018        2.66414       -1.94544
O          1.98501        1.88325       -2.02116
C          1.27680        4.13561       -2.03980
H         -1.57872        0.59174       -2.22722
H         -2.37405        1.44892        0.23860
H          0.16697        2.54279        1.23007
O          0.19984        5.06642       -1.95891
H          1.83352        4.21224       -3.00326
H          2.00048        4.28091       -1.20506
H          0.58285        5.96047       -1.90043
H          2.27153        1.75397       -1.09425
