24
ALPHA_DGLUCOSE.gamout	Energy:    -686.6584048
O          4.20576        2.72388       -0.24846
O          3.14978        1.67634       -2.46977
O          2.01765       -0.86552       -2.54962
O          0.32369        1.18722       -2.07292
O          2.04059        2.26499        0.22976
O         -0.38605        0.02553        1.77592
C          3.30238        1.66763       -0.04980
C          3.29326        0.83495       -1.34617
C          2.13688       -0.18739       -1.32028
C          0.78798        0.46735       -0.92921
C          0.92163        1.37833        0.31190
C          0.90924        0.59362        1.63904
H          3.98415        3.40610        0.41647
H          3.56768        2.52336       -2.20358
H          1.66027       -0.17869       -3.15420
H         -0.64929        1.20935       -2.02696
H         -0.38365       -0.54728        2.56385
H          3.61931        1.02095        0.81336
H          4.25836        0.26579       -1.38879
H          2.38630       -0.95071       -0.54862
H          0.07810       -0.34874       -0.66300
H          0.03113        2.04338        0.33644
H          1.14873        1.31679        2.45703
H          1.70620       -0.19098        1.64683
