4
AMMONIA.gamout	Energy:     -56.5088388
N         -0.00405       -0.02695        0.03117
H          1.02580        0.00649       -0.02327
H         -0.29124        0.96281       -0.02323
H         -0.29114       -0.42238       -0.87770
