23
AMPHETAMINE.gamout	Energy:    -405.2359478
N         -3.60344       -0.50040        0.16216
C         -2.25731       -0.19696       -0.34472
C         -1.25539       -0.36030        0.83025
C          0.19923       -0.17359        0.45357
C         -2.25269        1.22145       -0.92534
C          0.89747       -1.18345       -0.24742
C          0.89079        1.01944        0.76050
C          2.23612       -1.00642       -0.63476
C          2.23230        1.19976        0.38014
C          2.90945        0.18839       -0.32283
H         -1.92415       -0.89670       -1.15831
H         -1.39526       -1.38169        1.25161
H         -1.55152        0.35405        1.62778
H         -1.24696        1.50431       -1.29581
H         -2.56989        1.95365       -0.15303
H         -2.96033        1.29896       -1.77850
H          0.38590       -2.13291       -0.47987
H          0.36981        1.81846        1.31389
H         -3.65365       -1.48700        0.45424
H         -4.28948       -0.40320       -0.59953
H          2.75965       -1.80898       -1.17923
H          2.75282        2.13660        0.63698
H          3.96092        0.32682       -0.62114
