24
ANTHRACENE.gamout	Energy:    -539.1381180
C         -0.03427       -0.17979       -0.01180
C         -1.17977       -0.90577       -0.28485
C          1.21429       -0.83915        0.25107
C          2.39999       -0.12822        0.53258
C          3.62136       -0.78613        0.78943
C          4.83367       -0.07182        1.07692
C          6.01613       -0.74538        1.32483
C         -1.14172       -2.33686       -0.31038
C          1.25304       -2.29610        0.22505
H         -0.06286        0.92207        0.00790
C          0.04073       -3.01042       -0.06244
C          2.47441       -2.95402        0.48193
H         -2.12910       -0.38376       -0.48434
H         -2.06214       -2.90122       -0.52927
H          0.07000       -4.11228       -0.08196
H          2.37178        0.97440        0.55230
C          3.66011       -2.24309        0.76340
H          2.50262       -4.05664        0.46218
C          4.90867       -2.90245        1.02627
H          4.80440        1.03004        1.09645
C          6.05417       -2.17647        1.29930
H          6.93653       -0.18104        1.54382
H          4.93727       -4.00431        1.00650
H          7.00351       -2.69848        1.49882
