42
ARTEMISININ.gamout	Energy:    -960.1939540
O         -1.52054       -3.27980       -1.46840
O         -2.16934       -2.76004        1.28117
O         -0.80735       -4.61310        1.27745
O         -2.76664       -3.66888       -0.77842
O          0.08415       -6.64072        1.12306
C         -0.49346       -2.86898       -0.51810
C         -0.33632       -1.32802       -0.70073
C          0.77031       -3.65717       -0.92799
C          0.97405       -0.77220       -0.07245
C         -0.89356       -3.21187        0.93502
C          2.02283       -3.11363       -0.21576
C         -1.59154       -0.55951       -0.21729
C          2.19700       -1.61389       -0.48884
C          0.49938       -5.16956       -0.76029
C         -3.08024       -2.65609        0.15676
C         -2.95571       -1.23600       -0.46039
C          1.19690        0.71299       -0.40386
C         -0.04996       -5.54707        0.61662
C          1.66826       -6.08129       -1.15392
C         -4.47140       -3.00550        0.67098
H         -0.25427       -1.20445       -1.80589
H          0.90283       -3.46828       -2.01858
H          0.87269       -0.85520        1.03674
H         -0.18964       -2.69704        1.62497
H          2.91653       -3.66853       -0.56927
H          1.96205       -3.30334        0.88066
H         -1.61372        0.43939       -0.70099
H         -1.49389       -0.37042        0.87371
H          3.10006       -1.23147        0.03456
H          2.38354       -1.46231       -1.57759
H         -0.35726       -5.38798       -1.43907
H         -3.73778       -0.59376       -0.00365
H         -3.19225       -1.31129       -1.54175
H          1.24020        0.87274       -1.50351
H          0.39467        1.36248       -0.00015
H          2.15768        1.07020        0.02199
H          1.35888       -7.14203       -1.09693
H          2.00281       -5.86381       -2.18928
H          2.53566       -5.95981       -0.47346
H         -4.67769       -2.39854        1.57368
H         -5.23701       -2.79435       -0.10069
H         -4.50744       -4.07697        0.94708
