44
ATROPINE.gamout	Energy:    -941.3890430
O         -1.21226        2.47526       -1.13904
O         -1.63179        1.41936        0.83630
O          0.17322        4.60229        0.75106
N         -4.53765        3.59948       -3.27900
C         -4.03120        2.25888       -3.64398
C         -4.82483        3.42656       -1.83798
C         -5.01448        1.24969       -2.95739
C         -5.54865        2.04041       -1.72629
C         -2.59330        2.13681       -3.09257
C         -3.47459        3.43827       -1.08910
C         -2.59086        2.27472       -1.56535
C         -5.67575        4.04772       -4.07225
C         -0.87055        2.00932        0.09331
C          0.60729        2.28109        0.41124
C          1.51034        1.22758       -0.22730
C          1.02702        3.71243        0.04498
C          2.27322        0.36193        0.58611
C          1.60536        1.09107       -1.63085
C          3.10919       -0.61397        0.01705
C          2.44344        0.11800       -2.20097
C          3.19766       -0.73899       -1.37995
H         -4.01244        2.14647       -4.74799
H         -5.45587        4.26355       -1.47330
H         -4.51211        0.30022       -2.67900
H         -5.83951        0.98089       -3.64813
H         -6.64878        2.17052       -1.77969
H         -5.33315        1.53889       -0.76063
H         -2.13438        1.16818       -3.38544
H         -1.98060        2.95209       -3.53149
H         -2.95759        4.39596       -1.30584
H         -3.62545        3.36662        0.00801
H         -2.93775        1.33539       -1.08565
H         -5.36806        4.16196       -5.13291
H         -6.00598        5.04548       -3.71497
H         -6.57173        3.37144       -4.05430
H          0.67663        2.18012        1.51316
H          0.95035        3.84942       -1.05948
H          2.10140        3.84690        0.32612
H          2.20429        0.45138        1.68273
H          0.99936        1.74116       -2.28062
H          0.34832        5.50418        0.42689
H          3.69328       -1.28195        0.67031
H          2.50207        0.02406       -3.29737
H          3.84982       -1.50564       -1.82800
