25
BARBITAL.gamout	Energy:    -646.8625545
O         -0.48264       -3.00811       -0.19395
O          0.63869        1.67052       -0.29817
O         -3.32957        0.18502        1.43397
N         -1.86872       -1.38921        0.60479
N         -1.32213        0.89020        0.55307
C          0.33961       -0.73491       -0.37742
C          1.67306       -1.03844        0.37766
C          0.58979       -0.83101       -1.91618
C         -0.68220       -1.81900        0.00719
C         -0.07547        0.70994       -0.05057
C          1.58674       -0.98204        1.90653
C         -0.63594       -0.55843       -2.79449
C         -2.26274       -0.08195        0.90790
H          2.42100       -0.30609        0.00893
H          1.99914       -2.04695        0.04902
H          0.98127       -1.85131       -2.10987
H          1.39956       -0.10968       -2.15223
H          1.28949        0.02375        2.27080
H          0.86537       -1.72293        2.31139
H          2.57429       -1.21183        2.35646
H         -1.45573       -1.28171       -2.60020
H         -1.03740        0.46590       -2.64426
H         -0.37046       -0.64905       -3.86754
H         -2.54528       -2.11872        0.85764
H         -1.59246        1.85686        0.76839
