14
BENZALDEHYDE.gamout	Energy:    -345.3209148
O          5.49219        0.40211        0.35576
C          5.12381        1.56347        0.43668
C          3.70590        2.00995        0.36743
C          2.67439        1.05835        0.19646
C          3.38599        3.38146        0.47178
C          1.34001        1.47708        0.13096
C          2.04773        3.80027        0.40592
C          1.02599        2.84798        0.23560
H          5.87003        2.40567        0.57521
H          2.95371       -0.00424        0.11802
H          4.19642        4.11846        0.60506
H          0.53444        0.73754       -0.00231
H          1.79738        4.86981        0.48724
H         -0.02496        3.17468        0.18360
