24
BENZOPHENONE.gamout	Energy:    -576.2105987
O          2.32885        1.52715        1.47034
C          3.09434        1.76352        2.40710
C          2.64812        1.50590        3.82510
C          4.47119        2.31515        2.12876
C          1.25826        1.53653        4.08837
C          3.53618        1.15006        4.86659
C          5.16612        3.16103        3.02420
C          5.03823        2.04431        0.86063
C          0.76964        1.25665        5.37124
C          3.04263        0.84888        6.14753
C          6.40826        3.70962        2.66195
C          6.28587        2.57522        0.50935
C          1.66214        0.91245        6.40507
C          6.97475        3.41007        1.41078
H          0.58007        1.78318        3.25682
H          4.61638        1.07736        4.66748
H          4.71823        3.41786        3.99643
H          4.46526        1.41226        0.16466
H         -0.31320        1.29950        5.56966
H          3.74076        0.55812        6.94858
H          6.93494        4.37995        3.35972
H          6.72582        2.34710       -0.47467
H          1.27891        0.68406        7.41248
H          7.95284        3.83412        1.13221
