14
BENZOYL_CHLORIDE.gamout	Energy:    -804.8405984
Cl         6.52511        4.51472       -1.52058
C          7.28189        2.93311       -0.97949
O          8.47708        2.85317       -0.89412
C          6.30517        1.84766       -0.68360
C          6.84566        0.60757       -0.26251
C          4.90556        1.99645       -0.80126
C          5.99494       -0.46452        0.03531
C          4.60037       -0.31089       -0.08339
C          4.05929        0.91842       -0.50113
H          7.93817        0.50865       -0.17626
H          4.49283        2.96117       -1.12908
H          6.41959       -1.42661        0.36215
H          3.93225       -1.15482        0.15127
H          2.96875        1.03918       -0.59408
