15
BENZOTHIOPHENE.gamout	Energy:    -706.3523731
C         -3.97377       -0.52473        0.11965
C         -4.62061       -0.36058       -1.14707
C         -2.87100        0.39420        0.28052
C         -4.46593       -1.51273        1.00954
S         -3.85293        0.91130       -2.08959
C         -5.72377       -1.15120       -1.52366
C         -2.69512        1.21080       -0.80995
C         -5.56092       -2.29815        0.63632
C         -6.18639       -2.11884       -0.62214
H         -2.23855        0.43739        1.17894
H         -3.98222       -1.65549        1.98904
H         -6.21059       -1.01316       -2.50137
H         -1.93773        1.99335       -0.95087
H         -5.94302       -3.06548        1.32772
H         -7.04781       -2.74689       -0.89858
