22
BENZYL_ETHYL_ETHER.gamout	Energy:    -425.0780958
C          6.34030        1.90189       -0.20857
C          6.91211        0.63626       -0.42369
C          4.94410        2.04672       -0.13151
C          4.10148        0.92604       -0.27371
C          2.59602        1.06500       -0.16430
C          4.68188       -0.34174       -0.48997
C          6.07691       -0.48716       -0.56320
O          2.20592        2.40793       -0.35116
C          0.81246        2.62291       -0.19976
C          0.51519        4.09961       -0.41499
H          6.98680        2.78783       -0.10050
H          8.00627        0.52408       -0.48573
H          4.48695        3.03379        0.03068
H          2.10022        0.39585       -0.91542
H          2.25740        0.69694        0.84206
H          4.03347       -1.22647       -0.60972
H          6.51460       -1.48332       -0.73692
H          0.24090        1.99714       -0.93350
H          0.47586        2.29764        0.81902
H         -0.56977        4.29882       -0.29950
H          1.06443        4.72106        0.32151
H          0.82402        4.41715       -1.43162
