19
BETAINE.gamout	Energy:    -402.0174856
O          2.55206       -0.58413        0.21356
O          1.41181        0.86137       -1.15319
N         -1.11568        0.03172       -0.04674
C          0.22837       -0.54811        0.45742
C         -1.24597       -0.26931       -1.51928
C         -2.25492       -0.57878        0.70675
C         -1.10110        1.52714        0.14817
C          1.55645       -0.01720       -0.25554
H          0.27603       -0.32056        1.54125
H          0.15975       -1.64674        0.32806
H         -1.27371       -1.36762       -1.64923
H         -2.18209        0.18390       -1.89806
H         -0.33884        0.16525       -1.99088
H         -2.12673       -0.37216        1.78590
H         -3.21138       -0.14580        0.35196
H         -2.25385       -1.67238        0.53920
H         -1.03061        1.73994        1.23170
H         -0.19498        1.88457       -0.38735
H         -2.03518        1.95189       -0.26652
