5
BF4-1.gamout	Energy:    -424.1771631
B          0.00028       -0.00000       -0.00003
F         -0.00034       -1.15963       -0.82146
F         -0.00034        1.15963       -0.82146
F         -1.15982        0.00000        0.82108
F          1.16023        0.00000        0.82186
