34
BICYCLOHEXYL.gamout	Energy:    -470.1939153
C          5.20464        1.70434        2.32914
C          6.13853        1.75969        3.56174
C          5.95944        2.24560        1.08943
C          3.84672        2.42871        2.57129
C          7.48980        1.06248        3.32624
C          7.31154        1.54932        0.85331
C          2.91303        2.37409        1.33849
C          3.09168        1.88681        3.81058
C          8.21597        1.62125        2.09271
C          1.56173        3.07121        1.57420
C          1.73958        2.58301        4.04690
C          0.83535        2.51178        2.80731
H          4.96952        0.62719        2.13476
H          6.31605        2.83001        3.82513
H          5.64345        1.30281        4.44400
H          5.33210        2.14213        0.17977
H          6.12820        3.34025        1.22875
H          4.08189        3.50572        2.76631
H          8.12826        1.15621        4.23195
H          7.31465       -0.02916        3.18183
H          7.13032        0.47990        0.59450
H          7.81999        1.99780       -0.02831
H          3.40826        2.83146        0.45657
H          2.73550        1.30394        1.07445
H          2.92285        0.79226        3.67062
H          3.71889        1.98972        4.72039
H          8.49792        2.68359        2.28131
H          9.16702        1.07189        1.91895
H          1.73685        4.16277        1.71922
H          0.92341        2.97797        0.66834
H          1.23097        2.13406        4.92819
H          1.92078        3.65228        4.30634
H         -0.11571        3.06108        2.98120
H          0.55341        1.44955        2.61808
