33
BISPHENOL_A.gamout	Energy:    -731.1428496
C          6.96706        3.81927       -2.12889
C          7.23258        3.07858       -0.79306
C          6.96637        4.07883        0.36106
C          6.28347        1.87389       -0.59734
C          8.69768        2.58534       -0.80865
C          6.49889        0.98062        0.48114
C          5.16240        1.62802       -1.41510
C          9.07468        1.53568       -1.68203
C          9.71475        3.16022       -0.02027
C          4.29267        0.54839       -1.17184
C          4.52322       -0.32258       -0.09014
C          5.64337       -0.09553        0.73944
O          3.71704       -1.38682        0.19894
C         10.39527        1.08298       -1.77383
C         11.40019        1.67393       -0.97678
C         11.04751        2.71510       -0.09746
O         12.67529        1.19745       -1.09696
H          7.08237        3.15024       -3.00556
H          7.69314        4.64968       -2.24542
H          5.94749        4.25808       -2.15744
H          7.19477        3.63741        1.35224
H          7.56691        5.00597        0.24710
H          5.89642        4.37068        0.36423
H          7.37483        1.12478        1.13495
H          4.94060        2.28228       -2.27137
H          8.30347        1.04839       -2.30063
H          9.48336        3.97738        0.67877
H          3.42519        0.38376       -1.83514
H          5.82712       -0.78202        1.58028
H          2.99585       -1.41343       -0.45874
H         10.67351        0.26398       -2.45458
H         11.82076        3.18391        0.53611
H         13.24957        1.69649       -0.48508
