26
BMA+1.gamout	Energy:    -331.8413844
N         -1.42718        1.15754        0.07249
C         -0.47921        2.12465       -0.66588
C          0.73829        2.61960        0.11118
H         -1.12148        2.97385       -0.97659
H         -0.16563        1.58778       -1.58478
C          1.51949        3.66019       -0.72074
H          0.43592        3.08735        1.07354
H          1.41602        1.77410        0.35783
C          2.79027        4.14881       -0.01579
H          0.85329        4.52336       -0.94217
H          1.78571        3.21800       -1.70652
H          2.56222        4.60160        0.97231
H          3.30574        4.91851       -0.62424
H          3.50887        3.31847        0.14915
C         -2.12674        1.86701        1.20695
H         -2.70165        2.71883        0.79886
H         -1.37825        2.23119        1.93245
H         -2.81323        1.15630        1.70353
C         -2.46416        0.67552       -0.91409
H         -1.96108        0.10550       -1.71677
H         -2.98499        1.55000       -1.34542
H         -3.19020        0.02740       -0.38902
C         -0.67297       -0.03258        0.61296
H          0.03733        0.30601        1.38670
H         -0.12667       -0.52122       -0.21491
H         -1.39650       -0.74208        1.05526
