30
BMPYR+1.gamout	Energy:    -409.2108436
C         -3.81318        1.20739       -0.58456
C         -4.22166       -0.27232       -0.63178
C         -3.38245       -0.88804        0.48743
H         -3.96817       -0.72183       -1.61502
H         -5.30314       -0.44192       -0.46253
C         -2.29601        1.12175       -0.42405
H         -4.28253        1.72365        0.27957
H         -4.08882        1.77438       -1.49542
N         -2.04692       -0.09301        0.50316
H         -1.80878        2.01366        0.01116
H         -1.80973        0.89326       -1.39237
H         -3.15260       -1.96327        0.37055
H         -3.85611       -0.73760        1.47639
C         -1.74480        0.36565        1.90577
H         -1.66293       -0.51984        2.56396
H         -2.56648        1.01680        2.25642
H         -0.79488        0.92892        1.91718
C         -0.91791       -0.98213       -0.02896
C          0.45368       -0.32112       -0.16103
H         -1.27347       -1.34912       -1.01431
H         -0.87233       -1.85329        0.65721
C          1.47377       -1.29048       -0.79659
H          0.83316       -0.00467        0.83466
H          0.38940        0.59695       -0.78609
C          2.87071       -0.67438       -0.93353
H          1.10329       -1.60696       -1.79754
H          1.52972       -2.21797       -0.18371
H          2.85548        0.23617       -1.56872
H          3.57341       -1.39290       -1.39995
H          3.29157       -0.39204        0.05431
