1
BR-1.gamout	Energy:   -2574.5082851
Br        -7.66140        3.94500       -0.00000
