12
BROMOPENTAFLUOROBENZENE.gamout	Energy:   -3301.3634332
C          6.33776        1.86633       -0.67247
C          6.87737        0.61040       -0.33682
C          4.94204        2.04261       -0.72151
F          7.15007        2.89021       -0.94429
F          4.43219        3.23626       -1.04058
C          4.08779        0.96129       -0.43446
C          4.62131       -0.29863       -0.09811
F          2.76748        1.15269       -0.48744
C          6.01932       -0.46795       -0.05082
Br         3.47470       -1.74601        0.28557
F          6.55389       -1.64989        0.26453
F          8.20298        0.44497       -0.29054
