5
BROMOMETHANE.gamout	Energy:   -2613.9950637
H          0.00202        0.98548       -0.00414
C          1.10616        0.99661        0.01685
H          1.48610        2.03350       -0.00491
H          1.48537        0.46083        0.90517
Br         1.75846        0.07365       -1.58142
