5
BROMOCHLOROMETHANE.gamout	Energy:   -3073.4868615
C          0.85979        0.01289       -0.00010
Cl         2.45064        0.81892        0.00010
Br        -0.66142        1.24944        0.00010
H          0.77452       -0.60279       -0.91256
H          0.77448       -0.60316        0.91210
