5
BROMODIFLUOROMETHANE.gamout	Energy:   -2812.3167025
C          1.12248        2.15120        0.45001
Br         2.68665        2.87266        1.41899
F          0.60571        3.10073       -0.34810
F          1.49919        1.10268       -0.30001
H          0.38089        1.84052        1.21567
