65
BUDESONIDE.gamout	Energy:   -1423.3887409
O         -2.67365       -0.80294        0.55300
O         -2.94857       -1.51446       -1.57989
O          1.21738        2.67246        1.12951
O         -4.33788        2.09789       -0.61605
O         -5.25469        2.20719        1.89540
O          6.25468       -1.98679        1.04226
C         -1.22567        1.08713       -0.11912
C         -0.43856        0.22339       -1.15065
C          1.03815        0.61955       -1.31402
C         -2.65211        0.40732       -0.21949
C          1.73091        0.53354        0.07852
C         -1.37780        0.16250       -2.36615
C         -2.75033       -0.09899       -1.71440
C         -0.53665        0.92803        1.24807
C          0.97539        1.26196        1.22083
C          3.29199        0.84651       -0.00035
C          1.74168       -0.31808       -2.31795
C         -1.32926        2.57289       -0.53154
C          3.27275       -0.12683       -2.37176
C          3.87070       -0.16408       -0.98758
C         -3.82869        1.32597        0.17898
C         -3.35677       -1.77067       -0.25294
C          3.61247        2.28884       -0.50970
C          3.90695        0.72893        1.37474
C         -2.99085       -3.18655        0.15795
C         -4.30002        1.21424        1.62659
C          4.82339       -1.06731       -0.62805
C          4.86072       -0.17071        1.71232
C          5.39275       -1.15530        0.73545
C         -3.40522       -3.55474        1.58992
C         -3.04018       -4.99704        1.96244
H         -0.43508       -0.80833       -0.72483
H          1.09967        1.66487       -1.69087
H          1.67815       -0.54142        0.37182
H         -1.38392        1.11718       -2.93290
H         -1.14406       -0.65352       -3.07806
H         -3.60183        0.37361       -2.24897
H         -0.65784       -0.12006        1.59323
H         -1.01629        1.56845        2.02559
H          1.39966        0.87919        2.18159
H          1.31127       -0.18840       -3.33344
H          1.52791       -1.36992       -2.01849
H         -1.91012        2.71669       -1.46326
H         -1.85469        3.15723        0.25262
H         -0.32511        3.01970       -0.65015
H          3.50014        0.85274       -2.84926
H          3.73751       -0.90645       -3.00976
H         -4.46558       -1.59867       -0.15072
H          3.25679        3.04073        0.21651
H          4.70795        2.39660       -0.64658
H          3.12283        2.50359       -1.47961
H          3.56178        1.47134        2.11536
H          0.65093        3.11025        1.79319
H         -1.89293       -3.29910        0.02288
H         -3.47307       -3.87160       -0.57317
H         -3.38887        1.26965        2.27918
H         -4.68093        0.16941        1.75967
H          5.21756       -1.79499       -1.35776
H          5.29815       -0.20626        2.72358
H         -4.50272       -3.40462        1.70821
H         -2.92166       -2.84816        2.29904
H         -5.56290        2.07393        2.80960
H         -3.54407       -5.72823        1.29480
H         -1.94641       -5.17085        1.87629
H         -3.33556       -5.23763        3.00448
