13
BUT-1.gamout	Energy:    -306.9103935
O         -3.47687        2.59959        0.92840
C         -3.45733        1.34179        0.79766
O         -4.35275        0.49161        1.04267
C         -2.10802        0.74628        0.18607
C         -0.86342        1.57624        0.51234
H         -2.24524        0.71581       -0.92357
H         -2.00580       -0.31386        0.51073
C          0.38660        1.24955       -0.31630
H         -0.62309        1.47150        1.59689
H         -1.17137        2.63896        0.38494
H          0.70372        0.18910       -0.18849
H          1.25920        1.88947       -0.04582
H          0.19735        1.39456       -1.40430
