25
BUTYRIC_ANHYDRIDE.gamout	Energy:    -538.5826937
O          4.91691        1.50509        2.05151
C          3.66455        0.86979        2.13237
C          2.55227        1.87934        1.94666
O          3.54577       -0.31876        2.29237
C          6.04094        0.97866        2.71691
C          2.39623        2.83156        3.15370
C          7.30817        1.34583        1.97384
O          5.95745        0.37854        3.75837
C          1.23718        3.81887        2.97749
C          7.54559        2.86763        1.85706
C          8.84865        3.20735        1.12450
H          1.61914        1.30412        1.78140
H          2.76037        2.47483        1.03071
H          3.34828        3.38346        3.30783
H          2.23851        2.22488        4.07224
H          7.24457        0.90699        0.95308
H          8.14760        0.85584        2.50682
H          1.38366        4.46686        2.08695
H          1.13845        4.48316        3.86061
H          0.26922        3.28966        2.84852
H          7.56159        3.31009        2.87747
H          6.68148        3.32779        1.33259
H          9.73271        2.78498        1.64764
H          8.99409        4.30511        1.05628
H          8.85130        2.80443        0.08928
