19
BUTYL_VINYL_ETHER.gamout	Energy:    -310.8188675
C          3.02467        1.32116        2.87590
C          4.47924        1.03562        3.26081
O          5.35986        1.04303        2.13485
C          2.05845        1.24754        4.06771
C          5.77390        2.26358        1.69584
C          0.59983        1.52822        3.68619
C          6.35901        2.45653        0.49785
H          2.96832        2.32837        2.40371
H          2.72157        0.59279        2.09094
H          4.83324        1.76901        4.02663
H          4.57322        0.02189        3.70465
H          2.13104        0.23954        4.53686
H          2.38175        1.96984        4.85204
H          5.63059        3.09693        2.41478
H         -0.07162        1.46689        4.56752
H          0.23063        0.79938        2.93345
H          0.48277        2.54238        3.24781
H          6.49647        1.62577       -0.21067
H          6.72315        3.45661        0.22637
