24
CAFFEINE.gamout	Energy:    -679.9044305
C         -0.89252       -0.22825        0.19684
C         -0.09195       -1.41544        0.36570
C         -0.37273        1.06831        0.23344
N         -2.25596       -0.06303       -0.02336
N          0.97070        1.30549        0.43780
N         -1.34241        2.00912        0.04782
N          1.28098       -1.07320        0.57065
O         -0.48911       -2.58348        0.34482
C          1.85233        0.22378        0.61618
C          1.48520        2.67334        0.47202
C          2.23120       -2.17372        0.75917
O          3.05575        0.37792        0.80204
C         -2.45875        1.28864       -0.10268
C         -3.24788       -1.12487       -0.14500
H          2.57467        2.61003        0.64145
H          1.27401        3.18767       -0.48725
H          1.00123        3.24582        1.28893
H          3.01154       -2.14618       -0.02670
H          2.73335       -2.08494        1.74284
H          1.65333       -3.11318        0.70122
H         -3.45931        1.70928       -0.27515
H         -4.24140       -0.66437       -0.30427
H         -3.00337       -1.78570       -0.99927
H         -3.26738       -1.74269        0.77370
