49
CANNABINOL.gamout	Energy:    -965.6565502
O          0.88593       -0.11804       -0.05919
C          2.25587       -0.07469       -0.02081
C          2.91701        1.18845        0.00985
C          2.96852       -1.29156       -0.01198
C          2.27115        2.52100        0.00713
C          4.34195        1.13064        0.04852
C          4.37370       -1.31760        0.02726
C          3.09419        3.68168        0.04609
C          0.86276        2.71014       -0.03152
O          5.12573        2.23688        0.08231
C          5.05043       -0.08582        0.05659
C          5.17472       -2.61099        0.03966
C          4.62028        3.60498        0.08744
C          2.49221        4.95599        0.04696
C          0.26336        3.98187       -0.03160
C          4.38192       -3.92369        0.00941
C          5.17878        4.22225        1.38552
C          5.24771        4.25789       -1.16099
C          1.10175        5.11552        0.00911
C         -1.24183        4.13295       -0.07354
C          5.27712       -5.17277        0.02871
C          4.49826       -6.49713       -0.00182
C          5.39678       -7.74015        0.02093
H          0.62290       -1.05797       -0.07546
H          2.38785       -2.22861       -0.03699
H          0.21758        1.82562       -0.06238
H          6.14959       -0.03792        0.08812
H          5.83201       -2.60267        0.93972
H          5.87830       -2.59099       -0.82465
H          3.12965        5.85441        0.07805
H          3.73861       -3.95001       -0.89957
H          3.68645       -3.96104        0.87874
H          4.75441        3.70339        2.26816
H          4.92986        5.29965        1.46183
H          6.28241        4.11253        1.40743
H          4.87246        3.76495       -2.08002
H          6.35106        4.14839       -1.12681
H          5.00203        5.33712       -1.22032
H          0.66616        6.12865        0.01080
H         -1.74931        3.14844       -0.10338
H         -1.56652        4.71002       -0.96610
H         -1.61891        4.68219        0.81607
H          5.92469       -5.14760        0.93590
H          5.97635       -5.13758       -0.83899
H          3.85316       -6.51973       -0.90982
H          3.79771       -6.52860        0.86393
H          6.08438       -7.75962       -0.85193
H          4.80250       -8.67716       -0.00320
H          6.02635       -7.76822        0.93617
