8
CARBAMIDE.gamout	Energy:    -225.1100599
N          0.93148        0.94616       -0.14948
C          2.06012        1.73360        0.08097
N          3.23130        0.99802        0.26563
O          2.02537        2.95952        0.11855
H          0.05760        1.47236       -0.08527
H          0.89358        0.01297        0.26742
H          3.32201        0.09637       -0.20872
H          4.07396        1.57572        0.23622
