30
CARBAMAZEPINE.gamout	Energy:    -763.0244341
O          1.10382        1.87121       -3.18422
N          1.09130        0.32305       -1.45881
N          3.08258        0.86731       -2.60095
C          1.81451       -0.52998       -0.56435
C         -0.33268        0.40756       -1.32713
C          1.64711       -1.94514       -0.62585
C         -1.13490       -0.74492       -1.56651
C          0.62819       -2.58477       -1.45931
C         -0.57438       -2.06668       -1.85157
C          2.74071        0.03556        0.33779
C         -0.93521        1.64411       -1.02989
C          2.49074       -2.74856        0.18634
C         -2.54626       -0.59365       -1.52355
C          1.72004        1.07771       -2.47965
C          3.55253       -0.78173        1.13953
C         -2.33204        1.76428       -0.98635
C          3.43236       -2.18168        1.05436
C         -3.14127        0.63995       -1.23543
H          0.81619       -3.64663       -1.69630
H         -1.25943       -2.75539       -2.37673
H          2.83538        1.13123        0.37726
H         -0.29141        2.52028       -0.86956
H          2.38379       -3.84439        0.13206
H         -3.17589       -1.47697       -1.71906
H          4.28366       -0.32484        1.82491
H         -2.78906        2.74327       -0.77280
H          4.07220       -2.83208        1.67139
H         -4.23877        0.72819       -1.21101
H          3.51636        0.02150       -2.22637
H          3.48859        1.26088       -3.45030
