10
CHLORAL_HYDRATE.gamout	Energy:   -1608.5727850
Cl        -0.80489       -1.33970        0.50328
Cl        -0.41160        0.55889       -1.71473
Cl        -1.59207        1.47777        0.81631
O          1.38479        1.95661        0.29351
O          1.99008       -0.22214        0.12847
C          1.03644        0.66359        0.64447
C         -0.39399        0.38309        0.05805
H          0.91629        0.53602        1.75632
H          2.31976        2.07189        0.55225
H          1.71051       -1.12973        0.37016
