5
CHLOROFORM.gamout	Energy:   -1418.9584992
C          0.00000       -0.00001        0.45488
H         -0.00000        0.00025        1.55819
Cl         0.00000        1.70731       -0.08388
Cl         1.47855       -0.85366       -0.08388
Cl        -1.47855       -0.85366       -0.08388
