38
CHLORPHENIRAMINE.gamout	Energy:   -1190.1992115
Cl         5.75520        0.31672       -0.24778
N         -2.65518        2.31206       -0.38834
N         -0.93367       -1.66617        1.25719
C         -0.35335        0.31626       -0.08089
C         -0.87664        1.24757        1.04262
C         -2.35736        1.62056        0.86958
C          1.17459        0.28232       -0.12880
C         -0.93757       -1.09301        0.03461
C          1.86871        0.85428       -1.21588
C          1.93192       -0.28965        0.91854
C         -1.43294       -1.77161       -1.10130
C         -2.10530        3.65909       -0.44118
C         -4.07709        2.30400       -0.69837
C          3.27315        0.86886       -1.26432
C          3.33494       -0.28347        0.88847
C         -1.93221       -3.07505       -0.95729
C          3.99965        0.30089       -0.20497
C         -1.41053       -2.91546        1.38773
C         -1.92282       -3.66711        0.31619
H         -0.71098        0.74311       -1.04169
H         -0.75721        0.73456        2.02005
H         -0.24394        2.15927        1.08483
H         -2.69042        2.22538        1.75878
H         -2.96348        0.68868        0.88850
H          1.30008        1.30178       -2.04808
H          1.40540       -0.76203        1.76312
H         -1.42481       -1.27583       -2.08479
H         -1.00379        3.64245       -0.31474
H         -2.52621        4.34039        0.34988
H         -2.31822        4.11935       -1.42871
H         -4.45554        1.26109       -0.73508
H         -4.25168        2.76442       -1.69362
H         -4.70312        2.86790        0.04764
H          3.80489        1.31900       -2.11571
H          3.91873       -0.72864        1.70790
H         -2.32632       -3.62160       -1.82934
H         -1.38592       -3.34447        2.40680
H         -2.30542       -4.68667        0.47878
