8
CHLORO1,1DIFLUOROETHANE.gamout	Energy:    -737.5956465
Cl        -1.42353       -0.01350        0.00000
C          0.39451        0.05519       -0.00000
C          0.90067        1.48057        0.00000
F          0.83664       -0.61835        1.09186
F          0.83664       -0.61836       -1.09186
H          0.54300        2.01113        0.90185
H          2.00890        1.45682        0.00000
H          0.54301        2.01114       -0.90184
