6
CHLOROTRIFLUOROETHYLENE.gamout	Energy:    -835.4948938
C          8.99998       18.00310       -0.00000
C         10.34968       18.01602       -0.00000
Cl        11.27974       19.46652        0.00000
F         11.04392       16.87341        0.00000
F          8.28717       16.88584        0.00000
F          8.25213       19.09454        0.00000
