7
CHLOROACETYL_CHLORIDE.gamout	Energy:   -1072.7273753
Cl         0.80770        1.45354        1.37548
C          1.79901        1.63363       -0.15378
O          1.43127        1.20500       -1.20097
C          3.07439        2.38347        0.18969
Cl         4.14167        2.63124       -1.22238
H          2.79846        3.36599        0.62302
H          3.61776        1.81274        0.96967
