30
CHRYSENE.gamout	Energy:    -692.6792177
C          3.13684        1.89105        4.74111
C          2.48624        2.35390        5.92908
C          2.63335        2.29523        3.43240
C          4.28074        1.03149        4.87010
C          2.98975        1.94975        7.23779
C          1.34234        3.21346        5.80009
C          1.48284        3.15863        3.35532
C          3.22827        1.87505        2.20659
C          4.76261        0.64521        6.10075
C          4.14031        1.08642        7.31487
C          2.39482        2.36990        8.46360
C          0.86048        3.59976        4.56943
C          0.98234        3.55952        2.08246
C          2.72117        2.27997        0.97455
C          4.64071        0.68539        8.58773
C          2.90178        1.96481        9.69564
C          1.58797        3.13001        0.90699
C          4.03502        1.11480        9.76319
H          4.78872        0.66961        3.96489
H          0.83429        3.57525        6.70529
H          4.10834        1.21602        2.22267
H          5.64239       -0.01512        6.16955
H          1.51472        3.02890        8.44752
H         -0.01923        4.26020        4.50065
H          0.10081        4.22048        2.04809
H          3.20439        1.93719        0.04583
H          5.52245        0.02471        8.62205
H          2.41851        2.30750       10.62436
H          1.19344        3.44558       -0.07172
H          4.42949        0.79914       10.74190
