16
CIS,TRANS-2,4-HEXADIENE.gamout	Energy:    -234.4482930
C          6.08221        0.67490        0.95012
C          5.55223        2.06203        1.17763
C          4.25459        2.43839        1.34289
C          3.07927        1.57821        1.33600
C          1.80797        2.02732        1.50508
C          0.57450        1.17406        1.50274
H          5.28879       -0.09767        0.93040
H          6.63804        0.61304       -0.01232
H          6.80981        0.39171        1.74357
H          6.31549        2.86103        1.21232
H          4.05355        3.51426        1.50054
H          3.23416        0.49399        1.18307
H          1.65617        3.11363        1.65827
H         -0.13675        1.48904        0.70597
H          0.81267        0.10234        1.34243
H          0.01671        1.25991        2.46274
