24
CIS-3-OCTENE.gamout	Energy:    -314.2291820
C          4.61251        2.43947        2.31734
C          4.54135        3.75071        1.57236
C          3.19480        4.01077        0.85227
C          5.32854        1.34208        1.97930
C          1.97128        4.11626        1.77711
C          6.25150        1.16404        0.79904
C          0.67338        4.44285        1.02803
C          7.70049        0.84090        1.21164
H          3.99936        2.37246        3.23500
H          4.71877        4.58397        2.29191
H          5.36013        3.81053        0.82442
H          3.28502        4.95620        0.26964
H          3.02322        3.20202        0.10600
H          5.25416        0.46362        2.64941
H          2.16397        4.89957        2.54616
H          1.84219        3.16310        2.33670
H          6.23538        2.06645        0.15232
H          5.86600        0.32884        0.16856
H          0.43034        3.66176        0.27582
H         -0.19195        4.51779        1.71932
H          0.74886        5.40965        0.48460
H          8.34446        0.66688        0.32422
H          8.14533        1.67185        1.79819
H          7.74773       -0.07152        1.84355
