22
CIS-2-PHENYL-2-BUTENE.gamout	Energy:    -387.9881168
C          5.30855        2.81943        3.58683
C          4.22950        3.45318        3.04769
C          4.14817        4.95531        2.87528
C          3.05818        2.65576        2.57368
C          6.56782        3.42336        4.13735
C          2.28004        3.06936        1.46276
C          2.67357        1.45993        3.23132
C          1.19006        2.30557        1.01291
C          1.58614        0.69651        2.78353
C          0.83821        1.11314        1.66782
H          5.27881        1.71487        3.61159
H          4.94511        5.48544        3.43050
H          4.24739        5.24773        1.80625
H          3.16828        5.34613        3.22231
H          7.45525        3.10587        3.54434
H          6.55771        4.53086        4.15410
H          6.75457        3.07094        5.17661
H          2.53995        3.99585        0.92796
H          3.22668        1.14064        4.12843
H          0.60990        2.64591        0.14004
H          1.31102       -0.22494        3.32145
H         -0.01991        0.51711        1.31921
