16
CIS-1,3-HEXADIENE.gamout	Energy:    -234.4411509
C          5.51464        2.81458        2.66303
C          4.89956        1.92888        1.56007
C          3.86801        2.64989        0.73323
C          2.55349        2.33364        0.57666
C          1.84746        1.20433        1.17049
C          0.53365        0.93858        0.97235
H          6.30408        2.26742        3.21904
H          4.74453        3.14127        3.39253
H          5.97682        3.72972        2.23550
H          4.47066        1.01123        2.01396
H          5.71870        1.58682        0.88465
H          4.23626        3.55081        0.20651
H          1.94135        2.99001       -0.06908
H          2.42797        0.52704        1.82227
H          0.04194        0.07311        1.44324
H         -0.09159        1.58209        0.32970
