27
CIS-1-METHYL-2-ETHYLCYCLOHEXANE.gamout	Energy:    -353.5372442
C          1.02257        3.55972        1.49603
C          1.29587        2.06324        1.72340
C          2.76436        1.61510        1.96465
C          3.22878        1.66052        3.45475
C          3.77855        2.30377        1.02503
C          3.11949        3.03798        4.13703
C          4.65975        1.07610        3.56893
C          5.66902        1.77133        2.63820
H          1.34606        4.19369        2.34596
H          1.53239        3.94143        0.58689
H         -0.06449        3.73515        1.35198
H          0.91696        1.51478        0.83137
H          0.67412        1.69775        2.57253
H          2.78651        0.53109        1.69997
H          2.55219        0.97490        4.01622
H          3.43372        2.20895       -0.02894
H          3.49059        2.98167        5.18277
H          3.71124        3.82429        3.62300
H          2.06912        3.38917        4.18448
H          4.62504       -0.00707        3.30944
H          5.00466        1.12918        4.62534
H          6.67014        1.29808        2.73766
C          5.19530        1.72263        1.17602
H          3.81010        3.39679        1.23549
H          5.79952        2.83297        2.94846
H          5.19604        0.66331        0.82780
H          5.90798        2.26498        0.51693
