15
CIS-2-PENTENE.gamout	Energy:    -196.3825723
C          1.96070        3.20821        2.47301
C          0.44001        3.34887        2.26818
C          2.39016        1.78473        2.72753
C          3.26275        1.03667        2.01537
C          4.04885        1.44127        0.79802
H          2.26206        3.83511        3.34492
H          2.49639        3.63039        1.59641
H         -0.12403        2.95876        3.14240
H          0.10105        2.78097        1.37657
H          0.14719        4.41046        2.12846
H          1.90678        1.30354        3.59956
H          3.43941        0.00179        2.36465
H          5.14296        1.36764        0.98854
H          3.83513        2.47597        0.46399
H          3.84125        0.75817       -0.05543
