21
CIS-1,3-DIMETHYLCYCLOPENTANE.gamout	Energy:    -274.9726014
C          2.05196        1.90751        2.18148
C          0.63176        1.60929        1.69150
C          2.67501        3.21115        1.64086
C          3.10298        0.82372        1.80090
C          4.17830        3.06558        1.95612
C          4.46213        1.56872        1.64252
C          5.09613        4.05107        1.22709
H          2.02704        1.98973        3.29377
H          0.60237        1.52741        0.58254
H         -0.08153        2.40763        1.98769
H          0.25037        0.65230        2.10703
H          2.22365        4.12637        2.08137
H          2.52570        3.26921        0.53575
H          2.81007        0.34067        0.84281
H          3.14461        0.01291        2.55817
H          4.30396        3.21976        3.05423
H          4.83776        1.47426        0.59987
H          5.25677        1.15617        2.29900
H          6.16407        3.88157        1.48209
H          4.85631        5.10428        1.48541
H          4.99587        3.94499        0.12421
