4
CIS-DIFLUORODIAZINE.gamout	Energy:    -308.7912631
N         17.93773       29.08405        0.00000
N         16.97137       28.30985        0.00000
F         15.84484       29.11795       -0.00000
F         19.06426       28.27595       -0.00000
