21
CIS-1,2-DIMETHYLCYCLOPENTANE.gamout	Energy:    -274.9694047
C          2.23243        2.93768        3.82692
C          2.32122        1.54313        3.18291
C          2.06456        1.53518        1.64610
C          3.74647        0.94472        3.26399
C          0.84153        2.31141        1.14837
C          3.41590        2.00427        1.04408
C          4.51455        1.53608        2.04583
H          2.92677        3.66538        3.35404
H          1.20939        3.36190        3.75665
H          2.49498        2.88989        4.90499
H          1.58827        0.88061        3.69632
H          1.92522        0.46522        1.36277
H          4.24363        1.15744        4.23390
H          3.68551       -0.16121        3.17073
H          0.71507        2.19663        0.05084
H         -0.09493        1.95412        1.62795
H          0.93300        3.39905        1.35520
H          3.56764        1.60259        0.02040
H          3.41925        3.11229        0.94729
H          5.15467        2.38916        2.35296
H          5.19593        0.78323        1.59845
