6
CIS-1,2-DIFLUOROETHYLENE.gamout	Energy:    -276.8372074
C          0.49829        0.86577        0.00000
C          1.84211        0.86576        0.00000
F          2.58001       -0.25459       -0.00000
F         -0.23961       -0.25459        0.00000
H         -0.08249        1.80229       -0.00000
H          2.42289        1.80229       -0.00000
