55
CORTICOSTERONE.gamout	Energy:   -1118.3517617
O         -0.05067       -2.04778        1.06749
O         -5.29392        0.53957        0.56954
O          6.37802       -0.49649       -1.33070
O         -4.26801       -1.00197       -2.51799
C         -0.97076        1.49125       -0.06495
C         -1.97874        0.31437        0.07120
C          0.42029        1.20683        0.53205
C          1.00959       -0.08243       -0.11458
C          2.47196       -0.43791        0.37573
C         -1.38016       -0.90022       -0.66308
C         -3.23442        0.97863       -0.62397
C          0.02595       -1.29620       -0.15025
C         -1.76845        2.72630        0.39545
C          1.36973        2.39311        0.27881
C         -3.21515        2.44890       -0.11331
C          3.35167        0.80464        0.17768
C         -2.32263       -0.00039        1.55058
C          2.81161        2.10381        0.72729
C          3.00938       -1.61341       -0.48818
C          2.53995       -0.81982        1.88464
C         -4.54134        0.24339       -0.35040
C          4.53241       -1.78639       -0.43659
C          4.58587        0.75144       -0.40125
C          5.26807       -0.49924       -0.79979
C         -4.88343       -0.96761       -1.24282
H         -0.80584        1.60616       -1.16439
H          0.32431        1.06620        1.63461
H          1.13449        0.18418       -1.19313
H         -1.31135       -0.65952       -1.74644
H         -2.02746       -1.79992       -0.58604
H         -3.03982        0.92857       -1.71565
H          0.43719       -2.02673       -0.87738
H         -1.35676        3.67166       -0.01132
H         -1.74178        2.81610        1.50307
H          0.99740        3.30852        0.78575
H          1.36690        2.61496       -0.81340
H         -3.97187        2.57279        0.68761
H         -3.50218        3.14088       -0.93122
H         -1.42252       -0.00406        2.20277
H         -3.01320        0.74821        1.98617
H         -2.82340       -0.98565        1.64561
H          2.82777        2.04050        1.84073
H          3.48689        2.94159        0.45651
H          2.71706       -1.42848       -1.54684
H          2.51190       -2.55629       -0.18002
H          3.59383       -0.97643        2.19352
H          2.12675       -0.02382        2.53698
H          1.96524       -1.74563        2.06917
H          4.88300       -2.59385       -1.11100
H          4.86438       -2.07129        0.58835
H         -0.49801       -1.49359        1.73433
H          5.17909        1.67229       -0.53847
H         -4.52412       -1.86704       -0.69151
H         -5.99565       -1.04878       -1.27598
H         -4.71642       -0.34381       -3.08139
