17
COUMARIN.gamout	Energy:    -496.6697360
O         -3.54790        3.55255        0.74800
C         -2.50721        2.94774        0.88715
C         -1.32555        3.38424        1.63564
O         -2.39623        1.67830        0.26858
C         -0.19931        2.61497        1.72603
C         -0.13122        1.32556        1.07753
C          0.99806        0.46847        1.12174
C         -1.27931        0.90184        0.35044
C          0.98268       -0.76499        0.46449
C         -0.16808       -1.16545       -0.25172
C         -1.29828       -0.34013       -0.31228
H         -1.40930        4.36951        2.11656
H          0.67586        2.96894        2.29637
H          1.88891        0.79276        1.68367
H          1.86400       -1.42311        0.50412
H         -0.18176       -2.13704       -0.77007
H         -2.20437       -0.63139       -0.86364
