23
CYCLOOCTANONE.gamout	Energy:    -388.2101366
O         -1.81799        0.48165       -1.18784
C         -1.34839       -0.02889       -0.17631
C         -0.83756       -1.46882       -0.19996
C         -1.21259        0.78070        1.11147
C          0.71019       -1.59452       -0.17889
C          0.24497        1.19447        1.45421
C          1.46236       -0.58403       -1.08324
C          1.08849        1.68996        0.25096
C          2.04995        0.65460       -0.37200
H         -1.23261       -1.91217       -1.13685
H         -1.26674       -2.03443        0.65653
H         -1.64269        0.20692        1.96203
H         -1.83073        1.68971        0.96320
H          0.95040       -2.63096       -0.49871
H          1.09330       -1.51774        0.86137
H          0.17395        1.99948        2.21623
H          0.77621        0.36046        1.96081
H          0.79655       -0.26282       -1.91501
H          2.31220       -1.11029       -1.56869
H          1.71077        2.54695        0.58733
H          0.41409        2.10020       -0.53324
H          2.74649        0.30100        0.42441
H          2.69033        1.19044       -1.10744
