15
CYCLOPENTYL_CHLORIDE.gamout	Energy:    -655.9047058
Cl         1.76813       -1.90205        0.06817
C          3.36637       -1.23521        0.61840
C          3.26708        0.17691        1.21139
C          4.01184       -2.05773        1.74142
C          4.61907        0.34643        1.94828
C          5.09150       -1.10305        2.31388
H          4.00687       -1.23514       -0.28884
H          3.07357        0.95439        0.44547
H          2.41625        0.19461        1.92667
H          4.41466       -3.02745        1.38605
H          3.23122       -2.28098        2.50024
H          4.51774        0.99343        2.84322
H          5.36138        0.83966        1.28665
H          6.08189       -1.31470        1.85989
H          5.21288       -1.24152        3.40743
