20
CYCLOHEXYL_ISOCYANATE.gamout	Energy:    -403.0667167
C         -2.66304        0.35797        2.89392
N         -2.67454        1.02116        1.87560
C         -3.51621        1.36953        0.75196
O         -2.51161       -0.23918        3.90972
C         -4.78378        2.13387        1.19420
C         -3.88538        0.13256       -0.09629
C         -5.65605        2.51742       -0.01393
C         -4.75887        0.51884       -1.30227
C         -6.01813        1.28969       -0.86781
H         -2.91419        2.05416        0.11103
H         -5.36116        1.47830        1.88615
H         -4.48998        3.03236        1.77730
H         -2.95724       -0.38254       -0.42310
H         -4.43728       -0.58246        0.55627
H         -6.57474        3.03607        0.33483
H         -5.10613        3.25400       -0.64408
H         -5.03644       -0.39257       -1.87403
H         -4.16385        1.15124       -2.00098
H         -6.67539        0.61200       -0.27565
H         -6.60906        1.59717       -1.75729
