24
CYCLOOCTANE.gamout	Energy:    -314.2432137
C          1.03138        2.72530        1.36480
C          1.41242        1.26161        1.68422
C          1.57094        3.77186        2.37045
C          2.85073        0.98559        2.17051
C          2.66316        4.70628        1.80329
C          4.02336        1.45802        1.28323
C          3.75639        4.07223        0.91711
C          4.56683        2.89137        1.49668
H         -0.07673        2.78302        1.30567
H          1.38095        2.98318        0.34128
H          1.21163        0.64055        0.78203
H          0.72238        0.87434        2.46820
H          1.96051        3.25211        3.27286
H          0.74116        4.40765        2.74721
H          2.93220       -0.11570        2.30442
H          2.98968        1.40377        3.19335
H          3.15252        5.23642        2.65144
H          2.17357        5.50398        1.19941
H          3.76752        1.31785        0.20677
H          4.87509        0.76753        1.47071
H          4.46444        4.88980        0.65662
H          3.32106        3.75765       -0.05884
H          5.57440        2.92111        1.02610
H          4.75084        3.05405        2.58466
