19
CYCLOHEXANONE_OXIME.gamout	Energy:    -364.9231448
C         -3.89267        1.03662        1.13263
C         -5.09511        1.94785        1.23855
C         -4.12133       -0.06393        0.07227
C         -4.56316        0.53728       -1.27393
C         -5.82032        1.41080       -1.11330
C         -5.62078        2.52381       -0.05836
N         -5.59084        2.13533        2.41954
O         -6.70658        2.99291        2.41632
H         -3.66877        0.61066        2.13159
H         -3.00954        1.64741        0.82822
H         -3.19565       -0.66594       -0.05324
H         -4.90691       -0.76190        0.44005
H         -4.75273       -0.27069       -2.01316
H         -3.73460        1.15550       -1.69117
H         -6.10776        1.86455       -2.08611
H         -6.67431        0.76910       -0.80003
H         -6.55586        3.08455        0.12823
H         -4.86895        3.25396       -0.44056
H         -6.94683        2.99970        3.36185
