17
D-PROLINE.gamout	Energy:    -400.8638743
O         -2.20763        1.09258       -0.05629
O         -2.09982       -1.16668       -0.16988
N          0.70448       -1.06715       -0.16178
C         -0.06321        0.12294       -0.48977
C          0.66289        1.24346        0.30884
C          2.09509        0.67468        0.53547
C          2.10142       -0.66059       -0.24288
C         -1.54303       -0.08583       -0.20804
H         -0.01194        0.40051       -1.58375
H          0.14846        1.42939        1.27153
H          0.66207        2.19636       -0.25443
H          2.89153        1.36046        0.18426
H          2.26732        0.48664        1.61424
H          2.45129       -0.47982       -1.29634
H          2.77031       -1.42529        0.20360
H          0.44829       -1.88218       -0.72980
H         -3.15065        0.84707        0.07961
