33
DI-N-PENTYL_ETHER.gamout	Energy:    -469.1768512
O         -0.15386       -0.22360       -0.00002
C          1.69874       -1.72422        0.00001
C         -2.21174        0.99613       -0.00004
C          3.22136       -1.92463       -0.00002
C         -2.89762        2.36963       -0.00002
C          1.25918       -0.26256        0.00001
C         -0.68780        1.08406       -0.00002
C          3.64176       -3.40353       -0.00001
C         -4.43427        2.30206        0.00004
C          5.16094       -3.62101        0.00003
C         -5.11075        3.67941        0.00003
H          1.24528       -2.21693        0.88883
H          1.24524       -2.21691       -0.88879
H         -2.52657        0.40627       -0.88936
H         -2.52657        0.40625        0.88927
H          3.66591       -1.41823       -0.88827
H          3.66592       -1.41822        0.88823
H         -2.55788        2.95193       -0.88792
H         -2.55780        2.95194        0.88783
H          1.67115        0.27204       -0.89671
H          1.67110        0.27207        0.89674
H         -0.33170        1.65918       -0.89581
H         -0.33172        1.65915        0.89580
H          3.19330       -3.90684        0.88669
H          3.19338       -3.90686       -0.88674
H         -4.77326        1.71966       -0.88679
H         -4.77326        1.71970        0.88690
H          5.41338       -4.70093        0.00001
H          5.63788       -3.16631       -0.89479
H          5.63788       -3.16636        0.89488
H         -6.21638        3.59026        0.00002
H         -4.82287        4.27235       -0.89460
H         -4.82291        4.27239        0.89464
