28
DI-N-BUTYL_KETONE.gamout	Energy:    -428.7077582
C         -1.30182       -0.64951       -0.00000
C         -2.57201        0.20502        0.00000
C         -3.86804       -0.61960       -0.00000
C         -5.13753        0.24203        0.00000
C         -0.00000        0.15558        0.00000
O         -0.00000        1.37912        0.00000
C          1.30182       -0.64951        0.00000
C          2.57201        0.20502       -0.00000
C          3.86804       -0.61960        0.00000
C          5.13754        0.24203       -0.00000
H         -1.27737       -1.33454        0.88051
H         -1.27737       -1.33454       -0.88051
H         -2.55064        0.88134        0.88276
H         -2.55064        0.88134       -0.88276
H         -3.87667       -1.29418       -0.88705
H         -3.87667       -1.29418        0.88704
H         -5.17889        0.89950        0.89464
H         -5.17889        0.89951       -0.89464
H         -6.05581       -0.38128       -0.00000
H          1.27738       -1.33454        0.88051
H          1.27738       -1.33454       -0.88051
H          2.55064        0.88134       -0.88276
H          2.55064        0.88135        0.88276
H          3.87666       -1.29417        0.88705
H          3.87666       -1.29418       -0.88704
H          5.17890        0.89949       -0.89464
H          5.17890        0.89950        0.89463
H          6.05581       -0.38129        0.00000
