22
DI-N-PROPYLAMINE.gamout	Energy:    -292.1953264
C          0.01729       -0.16712       -0.01185
C          1.29783        0.67444       -0.00009
C          1.04067        2.18604        0.02655
N          2.28711        2.94404       -0.01031
C          2.11631        4.39262        0.02502
C          3.46467        5.12308       -0.00071
C          3.33384        6.65043       -0.01157
H          0.24533       -1.25292       -0.02581
H         -0.61181        0.02815        0.88325
H         -0.60489        0.05208       -0.90612
H          1.92470        0.44419       -0.88941
H          1.91685        0.39798        0.88521
H          0.39474        2.43946        0.91423
H          0.43838        2.47325       -0.86675
H          2.87772        2.65598        0.78327
H          1.51976        4.69206       -0.86822
H          1.51886        4.74864        0.91159
H          4.06212        4.80627        0.88577
H          4.03369        4.77226       -0.88929
H          4.32829        7.14209       -0.02325
H          2.77781        7.00336       -0.90634
H          2.78950        7.02072        0.88346
