51
DI-N-OCTYL_ETHER.gamout	Energy:    -704.8735020
C         -0.41487       -0.07622       -0.00016
C          0.97788        0.56615       -0.00017
C          0.94556        2.10412       -0.00005
C          2.33410        2.76579       -0.00008
C          2.29769        4.30561        0.00001
C          3.68486        4.97150        0.00001
C          3.63936        6.50705        0.00015
C          6.11006        9.24484        0.00021
O          4.87634        8.55735        0.00026
C          5.85043       10.74773        0.00020
C          5.02243        7.15194        0.00014
C          8.25677       13.89571       -0.00006
C          6.94186       13.09305        0.00006
C          8.07411       15.42327       -0.00007
C          7.14860       11.56852        0.00007
C          9.21273       17.73152       -0.00024
C          9.39716       16.20935       -0.00026
H         -0.35587       -1.18421       -0.00026
H         -1.00105        0.22622        0.89421
H         -1.00113        0.22641       -0.89441
H          1.55141        0.21242       -0.88746
H          1.55155        0.21228        0.88697
H          0.36969        2.45595        0.88777
H          0.36962        2.45613       -0.88777
H          2.90876        2.41239       -0.88793
H          2.90890        2.41234        0.88767
H          1.72263        4.65785        0.88771
H          1.72257        4.65801       -0.88759
H          4.26032        4.62078       -0.88809
H          4.26043        4.62078        0.88803
H          3.08329        6.87803        0.88978
H          3.08325        6.87831       -0.88934
H          6.72150        8.95659        0.89659
H          6.72141        8.95656       -0.89621
H          5.23055       10.99765       -0.88949
H          5.23066       10.99772        0.88994
H          5.60897        6.81693       -0.89644
H          5.60915        6.81684        0.89657
H          8.86343       13.60004        0.88752
H          8.86334       13.60004       -0.88771
H          6.33336       13.38332       -0.88758
H          6.33355       13.38343        0.88779
H          7.47048       15.72483       -0.88770
H          7.47072       15.72492        0.88769
H          7.75893       11.28225        0.88789
H          7.75876       11.28213       -0.88784
H         10.18876       18.25887       -0.00038
H          8.64938       18.07499       -0.89447
H          8.64962       18.07507        0.89413
H          9.99956       15.90694        0.88683
H          9.99937       15.90694       -0.88749
