19
DIALLYLCATION+1.gamout	Energy:    -290.0932860
C         -5.67558        1.83929       -0.04441
C         -4.40907        2.28624       -0.06640
C         -3.20091        1.37413       -0.07334
C         -0.64158        1.35524       -0.11274
C          0.57788        2.24985       -0.17607
C          1.83881        1.78707       -0.19608
N         -1.91568        2.17292       -0.10915
H         -0.66907        0.73320        0.80651
H         -0.71760        0.67066       -0.98343
H         -3.17308        0.70580       -0.95941
H         -3.14318        0.73371        0.83182
H         -6.52045        2.54478       -0.03996
H         -5.92360        0.76448       -0.02881
H         -4.22079        3.37723       -0.07881
H          2.69112        2.48190       -0.24415
H          2.07399        0.70979       -0.16556
H          0.40266        3.34260       -0.20958
H         -1.89697        2.82466        0.70094
H         -1.92498        2.79126       -0.94476
