22
DIBENZOPYRROLE.gamout	Energy:    -517.1049459
C          3.38526       -0.96168       -0.35963
C          2.92971        0.19130        0.32425
C          2.53046       -2.05272       -0.57558
C         -1.01224       -2.23976        0.52774
N         -0.56876       -0.99300        0.95295
C          0.06962       -2.90262       -0.14101
C         -2.27480       -2.84351        0.67375
C          0.76081       -0.81454        0.58857
C          1.20364       -1.99118       -0.10185
C          1.61497        0.28230        0.80720
C         -0.13552       -4.19453       -0.66763
C         -1.39281       -4.80027       -0.52451
C         -2.44847       -4.12973        0.13938
H          4.42321       -0.99966       -0.72533
H          3.61946        1.03571        0.48166
H          2.89079       -2.94695       -1.10843
H         -1.13371       -0.31102        1.45681
H         -3.09997       -2.32707        1.18896
H          1.26701        1.18217        1.33847
H          0.68205       -4.72108       -1.18499
H         -1.56272       -5.80876       -0.93242
H         -3.42733       -4.62473        0.24030
