29
DIBENZYL_ETHER.gamout	Energy:    -616.6750923
O          6.60859        4.13314       -1.27918
C          7.30963        2.93899       -0.98602
C          6.33885        1.84020       -0.60578
C          7.45887        5.23071       -1.55650
C          6.65036        0.49029       -0.86859
C          5.13073        2.14683        0.05433
C          6.63961        6.44017       -1.95634
C          5.77829       -0.53668       -0.46951
C          4.25450        1.12081        0.44567
C          7.09256        7.74235       -1.66062
C          5.43235        6.28238       -2.66822
C          4.57624       -0.22385        0.18918
C          6.36040        8.86700       -2.07849
C          4.69585        7.40589       -3.07869
C          5.15888        8.70185       -2.78899
H          7.93250        2.61451       -1.85875
H          8.02626        3.11483       -0.13955
H          8.09947        5.47513       -0.67030
H          8.16514        4.96471       -2.38825
H          7.58596        0.23864       -1.39602
H          4.88216        3.20196        0.24311
H          6.03490       -1.58662       -0.68312
H          3.31127        1.37438        0.95576
H          8.02859        7.87909       -1.09319
H          5.07231        5.26494       -2.88289
H          3.88878       -1.02778        0.49671
H          6.72663        9.87811       -1.83887
H          3.75152        7.26827       -3.62958
H          4.58067        9.58222       -3.11196
