8
DIBROMOACETIC_ACID.gamout	Energy:   -5375.9406482
Br        -1.36058        2.57104        0.90463
Br        -1.71466       -0.67800        0.69126
O          0.96671        0.75257       -0.39983
O          1.72171        0.53078        1.73032
C         -0.63868        0.80991        1.38791
C          0.81442        0.68170        0.93607
H         -0.67307        0.74115        2.48719
H          1.93058        0.65896       -0.56970
