5
DIBROMOMETHANE.gamout	Energy:   -5187.5068896
Br         1.86900       -0.20196        0.00000
Br        -0.81342        1.69484        0.00000
C         -0.07919       -0.11233       -0.00000
H         -0.43631       -0.61675        0.91339
H         -0.43631       -0.61676       -0.91338
