29
DIBUTYLCATION+1.gamout	Energy:    -371.1384602
C         -2.08558        1.40759       -0.39075
C         -0.37542        2.45187       -2.06202
N         -0.90660        1.21851       -1.33593
C         -3.35602        1.86845       -1.10269
H         -1.75420        2.11986        0.38964
H         -2.23591        0.42090        0.09533
C         -4.58449        1.87435       -0.16542
C         -4.50482        2.87195        0.99910
H         -4.75548        0.84426        0.22052
H         -5.47125        2.10863       -0.79215
H         -4.33932        3.90955        0.63773
H         -3.69537        2.62941        1.72202
C          0.22753        3.48211       -1.11074
H          0.38554        2.06530       -2.77105
H         -1.21692        2.86027       -2.65484
C          1.39079        2.96289       -0.24508
C          2.01936        4.06224        0.62110
H          2.16771        2.51238       -0.90358
H          1.03808        2.14266        0.42710
H          1.27266        4.51252        1.30736
H          2.43216        4.87628       -0.00930
H         -3.21636        2.88983       -1.52011
H         -0.56244        3.93375       -0.47129
H         -3.56205        1.19192       -1.96321
H          0.58759        4.31471       -1.75292
H         -5.45129        2.87281        1.57638
H          2.84703        3.66229        1.23973
H         -1.16368        0.50507       -2.04389
H         -0.11835        0.81113       -0.79575
