42
DIBUTYL_PHTHALATE.gamout	Energy:    -923.1750896
C          7.04670        0.62962       -1.50703
C          6.86139       -0.35927       -0.53014
C          6.16518        1.72007       -1.57244
C          5.08570        1.79626       -0.68180
C          4.86157        0.78580        0.27845
C          3.78425        0.90290        1.32616
C          5.77798       -0.29775        0.36810
C          5.77256       -1.32914        1.48567
O          4.80915       -2.28550        1.52198
O          6.68524       -1.36399        2.28392
C          3.79093       -2.41671        0.51510
C          3.53149       -3.90250        0.28877
C          2.42525       -4.17008       -0.74256
C          2.15740       -5.66190       -0.97622
O          2.60938        1.53394        1.03137
O          3.95668        0.48626        2.45652
C          2.02557        1.61914       -0.28412
C          0.54886        1.24181       -0.18194
C         -0.20920        1.42696       -1.50536
C         -1.69480        1.05919       -1.41151
H          7.89762        0.56061       -2.20070
H          7.57702       -1.18921       -0.44014
H          6.32492        2.52162       -2.30831
H          4.42596        2.67444       -0.70890
H          2.86939       -1.90513        0.87483
H          4.11114       -1.92493       -0.43021
H          4.48293       -4.38069       -0.03333
H          3.26886       -4.36632        1.26486
H          1.48547       -3.67160       -0.41308
H          2.69954       -3.68778       -1.70876
H          1.35773       -5.81226       -1.72920
H          3.06513       -6.18705       -1.34238
H          1.83538       -6.16825       -0.04144
H          2.12835        2.66421       -0.65673
H          2.56174        0.95513       -0.99639
H          0.47017        0.18790        0.16555
H          0.08259        1.86475        0.61314
H         -0.10997        2.48498       -1.83884
H          0.27519        0.81597       -2.30106
H         -2.20521        1.20764       -2.38402
H         -1.83368       -0.00322       -1.11845
H         -2.22190        1.68296       -0.65855
