6
DICHLOROACETONITRILE.gamout	Energy:   -1051.6247649
Cl         1.26918       -1.49937       -0.20409
Cl         1.26753        1.49909       -0.20425
N         -2.07819        0.00240       -0.15449
C          0.49098       -0.00049        0.42620
C         -0.93397       -0.00119        0.09753
H          0.63781       -0.00039        1.52325
