5
DICHLOROMETHANE.gamout	Energy:    -959.4668752
Cl         0.54266       -0.04308        2.33894
C          0.70751        1.05915        0.93636
Cl         2.37321        1.66982        0.68679
H          0.40709        0.50510        0.02925
H          0.04860        1.92923        1.10742
