22
DICYCLOPENTADIENE.gamout	Energy:    -387.9451091
C          2.90301        1.09053        2.86644
C          3.20236        1.50191        1.36974
C          4.46349        2.43469        1.52685
C          1.91189        2.20436        0.84617
C          4.03501        1.85729        3.67197
C          1.49421        1.58113        3.10593
C          4.13603        3.16869        2.85377
C          5.60353        1.53117        1.99262
C          0.96288        2.18989        2.02486
C          5.34651        1.18547        3.27591
H          2.98912       -0.00198        3.05457
H          3.45450        0.62681        0.73931
H          4.66773        3.06205        0.63624
H          2.11186        3.24398        0.49515
H          1.47696        1.67455       -0.03161
H          3.83289        1.94628        4.75768
H          0.97952        1.45547        4.07290
H          3.19263        3.75343        2.82975
H          4.96609        3.81968        3.19609
H          6.41000        1.14763        1.34883
H         -0.04617        2.63325        1.98387
H          5.89996        0.46223        3.89440
