18
DIETHYL_SULFITE.gamout	Energy:    -781.8873895
O          1.80995        1.52984        0.38358
S          1.83862        0.90346       -0.97398
O          0.50589       -0.14698       -1.08266
O          3.13367       -0.19583       -1.00519
C         -0.07868       -0.66502        0.13537
C          3.57904       -0.78333        0.23952
C         -1.57766       -0.81307       -0.07928
C          5.08621       -0.97830        0.17009
H          0.39502       -1.64618        0.36879
H          0.14543        0.03221        0.97283
H          3.29577       -0.11343        1.08139
H          3.05532       -1.75658        0.38228
H         -2.05277       -1.23903        0.82887
H         -2.04292        0.17175       -0.28775
H         -1.79451       -1.48639       -0.93324
H          5.44750       -1.47000        1.09747
H          5.36607       -1.61718       -0.69209
H          5.60780       -0.00551        0.06502
