24
DIETHYL_MALEATE.gamout	Energy:    -612.5225684
C          2.48778        1.52626        0.86443
C          2.12419        2.85971        1.42606
O          2.66592        3.08211        2.65234
O          1.38865        3.64431        0.84677
C          3.56273        0.76090        1.16125
C          2.36573        4.36114        3.26806
C          4.65357        1.03874        2.15315
C          1.05337        4.31957        4.04075
O          5.32197        2.18200        1.88094
O          4.93565        0.26978        3.05598
C          6.39510        2.51940        2.79720
C          7.06795        3.78025        2.28644
H          1.77199        1.17353        0.10455
H          3.65351       -0.22793        0.67852
H          2.33838        5.13778        2.47654
H          3.22532        4.55281        3.94074
H          0.19791        4.15351        3.35684
H          1.06376        3.51414        4.80300
H          0.89222        5.28631        4.56170
H          5.96199        2.65219        3.81193
H          7.09595        1.65934        2.85634
H          7.89206        4.07101        2.96900
H          7.49452        3.62408        1.27496
H          6.35003        4.62333        2.23023
