20
DIETHYL_OXALATE.gamout	Energy:    -535.1773931
C          0.50069        1.02730        0.73601
C          1.10496        1.16079       -0.65656
O          2.43010        1.75320       -0.61721
C          3.45736        0.90570       -0.42069
C          4.78565        1.70161       -0.43123
O          3.37409       -0.29520       -0.26027
O          5.81278        0.84954       -0.60781
O          4.86943        2.90604       -0.30015
C          7.13726        1.44190       -0.66885
C          7.74643        1.61374        0.71742
H         -0.53779        0.64442        0.65235
H          1.07964        0.31122        1.35246
H          0.46714        2.00666        1.25523
H          0.51610        1.85196       -1.29172
H          1.17291        0.17218       -1.15702
H          7.72425        0.73400       -1.28707
H          7.06619        2.41634       -1.19586
H          8.78364        1.99684        0.62013
H          7.16792        2.34484        1.31638
H          7.78384        0.64845        1.26196
