29
DIETHYLENE_GLYCOL_DIETHYL_ETHER.gamout	Energy:    -540.9106283
O         -0.00003        0.32342       -0.00000
O          3.55175       -0.27904       -0.00195
O         -3.55180       -0.27915        0.00195
C          1.18211       -0.45180       -0.00060
C         -1.18215       -0.45183        0.00058
C          2.37448        0.50045       -0.00134
C         -2.37455        0.50038        0.00132
C          4.74362        0.49005       -0.00282
C         -4.74370        0.48991        0.00283
C          5.93730       -0.45477       -0.00332
C         -5.93735       -0.45494        0.00337
H          1.23772       -1.11601        0.89836
H          1.23672       -1.11614       -0.89953
H         -1.23774       -1.11605       -0.89838
H         -1.23675       -1.11618        0.89951
H          2.31937        1.16574        0.89771
H          2.31836        1.16563       -0.90040
H         -2.31947        1.16567       -0.89773
H         -2.31845        1.16556        0.90038
H          4.77265        1.16087       -0.90017
H          4.77370        1.16130        0.89416
H         -4.77272        1.16074        0.90017
H         -4.77381        1.16115       -0.89416
H          6.88840        0.11564       -0.00405
H          5.91899       -1.10592        0.89440
H          5.91787       -1.10634       -0.90070
H         -6.88846        0.11544        0.00414
H         -5.91906       -1.10608       -0.89436
H         -5.91786       -1.10652        0.90075
