30
DIETHYL_PHTHALATE.gamout	Energy:    -766.0727474
C         -1.49376        0.71419        0.50177
C         -0.75042       -0.58293        0.31625
C          0.65099       -0.62049        0.09559
C          1.41868        0.62444       -0.25674
O          0.99909        1.52505       -0.96204
O          2.67401        0.59612        0.26128
C          3.50878        1.72696       -0.08407
C          4.83715        1.56971        0.63321
C          1.31398       -1.86279        0.08946
C          0.60615       -3.05996        0.27303
C         -0.78228       -3.02480        0.46496
C         -1.45101       -1.79233        0.48455
O         -1.09207        1.66382        1.14975
O         -2.71389        0.66359       -0.08999
C         -3.53896        1.83913        0.08966
C         -4.81127        1.64730       -0.71393
H          3.62933        1.76122       -1.18884
H          2.97978        2.65870        0.20864
H          4.69928        1.54838        1.73351
H          5.35091        0.63332        0.33337
H          5.50084        2.42248        0.38461
H          2.40010       -1.88020       -0.07882
H          1.14179       -4.02090        0.25963
H         -1.34907       -3.95747        0.60509
H         -2.53747       -1.75488        0.64762
H         -3.74310        1.97282        1.17454
H         -2.96173        2.72989       -0.23737
H         -4.59077        1.52513       -1.79400
H         -5.37273        0.75350       -0.37289
H         -5.46659        2.53382       -0.59478
