5
DIFLUOROMETHANE.gamout	Energy:    -238.7949847
F         -0.04299        0.01579        1.32862
C          0.75026        0.97185        0.76889
F          1.82712        0.37881        0.18119
H          1.10991        1.65843        1.57105
H          0.16511        1.51325       -0.01118
