5
DIIODOMETHANE.gamout	Energy:    -634.9373294
I         -1.84935        0.06360       -0.00000
C          0.00017       -1.06261        0.00001
I          1.84934        0.06358       -0.00000
H          0.00017       -1.67541        0.91448
H          0.00017       -1.67528       -0.91453
