33
DIISOPENTYL_SULFIDE.gamout	Energy:    -792.1279758
S          0.03840        0.86117       -0.18165
C          3.38706        3.18604        1.07416
C         -3.03388        3.72856        0.53909
C          2.30026        2.54339        0.17701
C         -2.07837        2.52596        0.73256
C          1.31805        1.61711        0.90568
C         -1.11563        2.27332       -0.43475
C          4.18165        4.23288        0.27297
C          4.32936        2.14245        1.70047
C         -3.82388        3.99869        1.83187
C         -3.98774        3.53905       -0.65438
H          2.86223        3.71680        1.90422
H         -2.40306        4.62651        0.33274
H          2.78608        1.97725       -0.64929
H          1.72471        3.36149       -0.31146
H         -2.67304        1.60289        0.91911
H         -1.48295        2.69375        1.65809
H          1.83833        0.74309        1.35061
H          0.81770        2.14311        1.74858
H         -1.66429        2.01178       -1.36354
H         -0.52123        3.18372       -0.66983
H          4.94567        4.73667        0.90190
H          4.71250        3.75627       -0.57984
H          3.51494        5.01614       -0.14501
H          3.79173        1.42445        2.35343
H          4.84763        1.55596        0.91022
H          5.11094        2.63007        2.32012
H         -4.46681        3.12899        2.09080
H         -3.14875        4.18180        2.69413
H         -4.48716        4.88269        1.72516
H         -3.44409        3.42091       -1.61444
H         -4.66711        4.41023       -0.76576
H         -4.62471        2.63791       -0.51449
