22
DIISOPROPYL_KETONE.gamout	Energy:    -350.1401283
C          1.30547        0.15242        0.47897
C          1.85125       -1.26645        0.76910
C          2.32985        1.01304       -0.27150
C          0.00000       -0.00000       -0.32309
O          0.00000       -0.00001       -1.54675
C         -1.30548       -0.15242        0.47896
C         -1.85124        1.26646        0.76910
C         -2.32986       -1.01303       -0.27151
H          1.05437        0.62579        1.45564
H          1.11972       -1.89422        1.31978
H          2.10009       -1.78593       -0.18007
H          2.77484       -1.21130        1.38220
H          2.51741        0.59063       -1.27931
H          1.96263        2.05040       -0.41311
H          3.29175        1.05928        0.27943
H         -1.05438       -0.62579        1.45563
H         -2.77483        1.21131        1.38220
H         -1.11971        1.89421        1.31979
H         -2.10008        1.78594       -0.18006
H         -1.96265       -2.05039       -0.41311
H         -3.29176       -1.05926        0.27943
H         -2.51742       -0.59062       -1.27931
