17
DIMETHYL_MALONATE.gamout	Energy:    -495.8847915
C          3.84123        0.73793        1.47217
C          3.09935        2.04495        1.15978
C          5.28707        1.02252        1.85415
O          1.74913        1.96114        0.98051
O          3.64691        3.11934        1.05433
O          6.07495        1.05108        0.75326
O          5.68314        1.20018        2.98871
C          1.04485        0.72219        1.09741
C          7.45136        1.39383        0.99206
H          3.80610        0.08359        0.57525
H          3.36055        0.20244        2.31513
H          1.44000       -0.05213        0.40545
H          1.06628        0.32939        2.13701
H         -0.00436        0.94019        0.82281
H          7.92755        0.65956        1.67369
H          7.94373        1.38118        0.00290
H          7.52861        2.40017        1.45128
