20
DIMETHYL_SUCCINATE.gamout	Energy:    -535.1830601
C          6.75916        4.81832        3.18242
C          7.19326        4.17618        4.49003
O          6.60807        2.95975        4.64789
O          7.97589        4.65430        5.29192
C          7.10522        6.30728        3.12218
C          6.98878        2.23909        5.83248
C          6.95846        6.99080        1.77258
O          6.94952        6.09938        0.74119
O          6.88454        8.19449        1.61330
C          6.84169        6.67194       -0.57229
H          5.67568        4.63198        3.03021
H          7.26514        4.26926        2.35911
H          8.15928        6.45392        3.44767
H          6.50269        6.89687        3.84314
H          6.46344        1.26791        5.77953
H          6.68447        2.79071        6.74550
H          8.08650        2.08462        5.86711
H          7.76450        7.22878       -0.83684
H          6.70079        5.82168       -1.26497
H          5.98254        7.37002       -0.63083
