13
DIMETHYL_PHOSPHATE-1.gamout	Energy:    -721.8352229
C         -3.18977       -1.08943        1.78831
O         -2.39707        0.04496        2.05375
H         -3.80573       -0.94414        0.87054
H         -2.57137       -2.01004        1.63654
H         -3.86455       -1.27108        2.65856
P         -1.71631        0.83774        0.72203
O         -0.48748       -0.34281        0.46620
C          0.24803       -0.18192       -0.71972
H         -0.41744       -0.06897       -1.61144
H          0.89181       -1.08092       -0.87345
H          0.91797        0.71650       -0.68807
O         -2.67483        0.75582       -0.45953
O         -1.08218        2.10880        1.23920
