10
DIMETHYLAMINE.gamout	Energy:    -135.0582431
C          0.90092        1.07620        1.48759
N          2.09421        1.76821        1.02734
C          3.33293        1.17649        1.50743
H          0.81713        1.16595        2.59350
H         -0.00586        1.54615        1.05298
H          0.86536       -0.02316        1.25115
H          2.10151        1.79810        0.00021
H          4.20489        1.71995        1.08759
H          3.39093        1.27123        2.61459
H          3.46087        0.08436        1.27079
