24
DIMETHYL_PHTHALATE.gamout	Energy:    -687.4982421
O          5.89946        3.44829        1.18742
C          5.39319        4.67875        1.44538
O          6.03832        5.71051        1.39510
C          3.90699        4.62402        1.69008
C          7.32450        3.39327        1.02038
C          3.29279        3.73583        2.61192
C          3.10482        5.50610        0.94010
C          4.13173        2.92213        3.55371
C          1.88525        3.71707        2.72082
C          1.70646        5.48456        1.06192
O          3.47086        1.81692        3.99367
O          5.25368        3.22128        3.92773
C          1.09448        4.58128        1.94747
C          4.17915        1.02363        4.95844
H          7.65651        4.07123        0.20776
H          7.56277        2.34320        0.77153
H          7.83380        3.68955        1.96029
H          3.59742        6.20732        0.24905
H          1.42178        3.02602        3.43989
H          1.09394        6.17551        0.46126
H         -0.00210        4.55833        2.04760
H          3.50814        0.18427        5.21629
H          4.42053        1.62019        5.86223
H          5.12968        0.64112        4.53307
