23
DIPHENYL_ETHER.gamout	Energy:    -538.1210977
O          4.65292        2.07352        0.47835
C          3.42958        1.98308        1.11453
C          5.83527        2.06250        1.19346
C          3.15376        2.64730        2.32730
C          2.42014        1.25755        0.45328
C          6.03657        1.23530        2.31739
C          6.88424        2.86187        0.69962
C          1.86297        2.56826        2.87583
C          1.13252        1.19512        1.00958
C          7.29228        1.22461        2.94709
C          8.13619        2.83378        1.33464
C          0.84802        1.84499        2.22409
C          8.34607        2.02011        2.46248
H          3.94505        3.22260        2.83088
H          2.66356        0.75446       -0.49454
H          5.21576        0.60428        2.68998
H          6.69812        3.49180       -0.18320
H          1.64880        3.08865        3.82302
H          0.34526        0.62696        0.48901
H          7.44817        0.57688        3.82466
H          8.95435        3.45985        0.94440
H         -0.16152        1.79017        2.65969
H          9.32756        2.00349        2.96096
