28
DIPHENYL_TRIFLUOROETHANE.gamout	Energy:    -839.0324618
F         -1.19407       -2.74307        0.25139
F          0.98156       -2.81588        0.08089
F         -0.21991       -1.98500       -1.54763
C         -0.02633       -0.68143        0.48424
C         -1.26925        0.15742        0.16136
C          1.29626        0.04918        0.25601
C         -0.10877       -2.06025       -0.19360
C         -1.32827        0.97377       -0.98706
C          1.82835        0.81056        1.31998
C         -2.39622        0.09395        1.00803
C          1.98808        0.04158       -0.97548
C         -2.48727        1.71125       -1.28005
C          3.01332        1.54668        1.16294
C         -3.55562        0.83241        0.71738
C          3.17698        0.77613       -1.13251
C         -3.60382        1.64453       -0.42907
C          3.69321        1.53248       -0.06738
H         -0.07797       -0.92971        1.56559
H         -0.45450        1.04292       -1.65255
H          1.30104        0.82639        2.28837
H         -2.36444       -0.54751        1.90383
H          1.60515       -0.55219       -1.81804
H         -2.51528        2.34657       -2.17970
H          3.40985        2.13015        2.00913
H         -4.42447        0.77569        1.39225
H          3.70422        0.75242       -2.09967
H         -4.51016        2.22764       -0.65738
H          4.62502        2.10614       -0.19448
