43
DMIM+1.gamout	Energy:    -658.5494802
C          2.12455        2.18995        3.36186
N          1.41417        2.35930        2.08688
H          3.05903        2.78186        3.34588
H          2.36232        1.12040        3.52066
H          1.48333        2.54822        4.18734
C          0.12694        2.73876        1.94157
N         -0.17286        2.77205        0.62814
H         -0.56238        2.98448        2.75793
C          1.95141        2.14070        0.82612
C         -1.49826        3.11009        0.05459
C         -2.19177        1.90900       -0.60069
H         -1.34145        3.93335       -0.67285
H         -2.10557        3.52130        0.88586
C         -3.59000        2.28728       -1.12648
H         -2.25637        1.07978        0.13378
H         -1.56736        1.53640       -1.44291
C         -4.28587        1.23002       -2.01036
H         -3.49612        3.22344       -1.72259
H         -4.25112        2.54268       -0.26714
C         -4.85640       -0.02440       -1.31824
H         -3.59309        0.92501       -2.82920
H         -5.12789        1.74739       -2.51804
C         -3.84731       -1.07829       -0.82339
H         -5.53804       -0.51866       -2.04636
H         -5.51142        0.28862       -0.47217
C         -4.51900       -2.40091       -0.41256
H         -3.10142       -1.26604       -1.62825
H         -3.26771       -0.68770        0.04456
C         -3.63412       -3.43602        0.30938
H         -4.96349       -2.87270       -1.31864
H         -5.38195       -2.16440        0.25098
C         -2.45251       -4.03152       -0.48910
H         -3.25322       -3.00012        1.26353
H         -4.29962       -4.27167        0.61622
C         -1.15614       -3.20779       -0.49090
H         -2.77858       -4.22497       -1.53682
H         -2.21797       -5.03353       -0.06856
C          0.95498        2.39895       -0.08844
H          0.96520        2.35119       -1.18226
H          2.99041        1.82657        0.68014
H         -1.27871       -2.21981       -0.98163
H         -0.34367       -3.74056       -1.02863
H         -0.80156       -3.02298        0.54719
