18
DMPY+1.gamout	Energy:    -327.0508868
C         -2.22957        0.03645       -0.00073
N         -0.75240       -0.08184       -0.00052
H         -2.55709        0.57657       -0.90976
H         -2.55576        0.59037        0.90073
H         -2.67716       -0.97247        0.00728
C         -0.15125       -1.30409        0.01335
C          0.00815        1.05320       -0.01370
C          1.23683       -1.42031        0.00853
H         -0.81682       -2.17919        0.03317
C          1.39518        0.98493       -0.01020
H         -0.53907        2.00748       -0.02497
C          2.05874       -0.26949       -0.00209
H          1.67844       -2.42830        0.01488
H          1.96720        1.92538       -0.01516
C          3.55488       -0.35489       -0.00106
H          3.91729       -1.39961        0.01127
H          3.97304        0.17164        0.88373
H          3.97428        0.15498       -0.89483
