49
DODMIM+1.gamout	Energy:    -737.1137332
C          2.54616        3.08081        3.22734
N          1.67290        2.85362        2.06735
H          3.34322        3.80129        2.95863
H          3.00211        2.12398        3.54614
H          1.94793        3.49482        4.05862
C          0.35130        3.12266        2.00620
N         -0.10482        2.80171        0.77826
H         -0.25075        3.54645        2.81843
C          2.07193        2.34240        0.84074
C         -1.49026        3.02287        0.29143
C         -2.13303        1.79839       -0.37331
H         -1.44835        3.87232       -0.42406
H         -2.08088        3.36440        1.16536
C         -3.53345        2.16179       -0.91051
H         -2.17948        0.95427        0.34700
H         -1.49745        1.46070       -1.22159
C         -4.15755        1.17769       -1.92318
H         -3.45663        3.15367       -1.41080
H         -4.23189        2.31336       -0.05567
C         -4.82511       -0.10079       -1.38405
H         -3.39416        0.90891       -2.69070
H         -4.93556        1.74782       -2.47425
C         -3.92012       -1.22154       -0.83895
H         -5.42293       -0.52926       -2.21948
H         -5.57636        0.17770       -0.60883
C         -4.70139       -2.53867       -0.66652
H         -3.06464       -1.37812       -1.53530
H         -3.47248       -0.93012        0.13989
C         -3.99697       -3.70949        0.04630
H         -5.03773       -2.87958       -1.67327
H         -5.63777       -2.31366       -0.10686
C         -2.76151       -4.32549       -0.64845
H         -3.72129       -3.40663        1.08412
H         -4.75854       -4.51055        0.16910
C         -1.41090       -3.65364       -0.34316
H         -2.92879       -4.35613       -1.75036
H         -2.68342       -5.39141       -0.33810
C         -0.20116       -4.39848       -0.93141
H         -1.28911       -3.58146        0.76343
H         -1.40619       -2.60242       -0.71301
C          1.14814       -3.75668       -0.58183
H         -0.30952       -4.46442       -2.03810
H         -0.21336       -5.45156       -0.56924
H          1.21559       -2.71624       -0.96961
H          1.99807       -4.32618       -1.01131
H          1.30039       -3.71178        0.51891
C          0.95713        2.31159        0.03218
H          0.84421        1.98573       -1.00709
H          3.10628        2.04128        0.64187
