19
EMIM+1.gamout	Energy:    -344.2937256
C         -0.22328       -0.34894        0.13567
C          1.30560       -0.33847        0.11281
N          1.87721        1.03069        0.13144
H          1.70579       -0.84155       -0.78976
H          1.73131       -0.86441        0.99077
C          2.19050        1.76656       -0.95458
C          2.61800        3.00420        0.83902
C          2.13264        1.78803        1.26359
C          3.08790        4.06527       -1.41986
H          1.96147        1.40285        2.27443
N          2.64708        2.96958       -0.54663
H          2.09342        1.44097       -1.99698
H          2.94875        3.87915        1.40863
H          3.19395        3.68826       -2.45268
H          4.06622        4.44430       -1.06849
H          2.34336        4.88609       -1.40362
H         -0.65136        0.14871       -0.75798
H         -0.62653        0.14289        1.04383
H         -0.57552       -1.39959        0.13799
