22
EMMIM+1.gamout	Energy:    -383.5886721
C         -1.90912       -0.61276        0.04534
C         -0.76559        0.39066        0.12442
H         -2.83903       -0.06384       -0.20148
H         -2.08230       -1.13054        1.01045
H         -1.74833       -1.36561       -0.75208
N          0.54953       -0.22835        0.43582
H         -0.96276        1.15099        0.90906
H         -0.65405        0.93061       -0.83935
N          2.69949       -0.41956        0.81945
C          2.14856       -1.68831        0.93051
C          0.80069       -1.56879        0.69033
C          4.12255       -0.09987        0.99866
H          4.66014       -1.03203        1.24673
H          4.25561        0.62054        1.82867
H          4.54744        0.31749        0.06514
H          2.75336       -2.56901        1.17017
H          0.01552       -2.32944        0.68292
C          1.71490        0.46828        0.51774
C          1.86535        1.93342        0.30661
H          1.22443        2.50671        1.00955
H          1.57135        2.22262       -0.72471
H          2.91137        2.25269        0.46416
