21
ETHYL_BENZOATE.gamout	Energy:    -499.0810264
C          0.76052        0.69609       -0.00120
C         -0.64877        0.18689       -0.00013
C         -1.68702        1.14390        0.00212
C         -3.02663        0.73082        0.00287
C         -3.33893       -0.64190        0.00127
C         -2.30766       -1.59922       -0.00111
C         -0.96469       -1.18986       -0.00399
O          1.06906        1.87854       -0.00324
O          1.67713       -0.30916        0.00126
C          3.06277        0.11060       -0.00120
C          3.93477       -1.13144        0.00341
H         -1.41192        2.20971        0.00356
H         -3.83355        1.48072        0.00454
H         -4.39172       -0.96684        0.00182
H         -2.55292       -2.67325       -0.00220
H         -0.15023       -1.92875       -0.00593
H          3.23972        0.74801       -0.89462
H          3.24053        0.75508        0.88694
H          5.00536       -0.84148        0.00180
H          3.74729       -1.75117        0.90410
H          3.74664       -1.75863       -0.89197
