22
ETHYL_BUTYL_KETONE.gamout	Energy:    -350.1413811
C          4.00865        1.45286        0.94238
C          2.78053        1.78650        1.79471
C          1.86194        0.61784        2.15874
O          2.52991        2.93084        2.14875
C          5.01979        2.60087        0.81358
C          0.58577        1.04118        2.88497
C          5.83755        2.89271        2.08753
C          6.85726        1.80687        2.45937
H          4.47692        0.51849        1.32736
H          3.61316        1.16740       -0.06105
H          1.63639        0.05087        1.22596
H          2.46181       -0.09230        2.77504
H          4.45856        3.51644        0.53087
H          5.71388        2.37949       -0.02800
H          0.82529        1.57760        3.82491
H         -0.04601        0.16472        3.13390
H         -0.01343        1.73737        2.26383
H          6.37249        3.85748        1.94486
H          5.13668        3.06468        2.93326
H          6.37529        0.82536        2.65731
H          7.59912        1.65216        1.64625
H          7.42023        2.07966        3.37622
