23
ETHYL_VALERATE.gamout	Energy:    -425.3272420
C          0.60304        0.31864       -0.00114
C         -0.62645       -0.57760       -0.00113
C         -1.95044        0.19084        0.00023
C         -3.18205       -0.72803        0.00031
C         -4.51260        0.03477        0.00175
O          0.59843        1.53657       -0.00254
O          1.74060       -0.42806        0.00049
C          2.98709        0.30735        0.00027
C          4.12236       -0.70320        0.00166
H         -0.54829       -1.25303       -0.88280
H         -0.54730       -1.25449        0.87931
H         -1.98047        0.86423        0.88504
H         -1.98154        0.86564       -0.88346
H         -3.13819       -1.40033       -0.88722
H         -3.13702       -1.40166        0.88676
H         -4.60460        0.68640        0.89680
H         -4.60575        0.68777       -0.89219
H         -5.37998       -0.65776        0.00178
H          3.01705        0.96887       -0.89261
H          3.01635        0.97056        0.89192
H          4.07628       -1.35159        0.90024
H          4.07697       -1.35321       -0.89578
H          5.09956       -0.17860        0.00155
