14
ETHYL_ACETATE.gamout	Energy:    -307.4777295
O          1.82124        2.19816        1.04109
C          1.57019        3.57701        1.39834
C          2.22165        3.83918        2.74400
C          1.30074        1.79498       -0.14896
C          1.62887        0.34211       -0.42736
O          0.65828        2.52401       -0.88269
H          1.97481        4.23473        0.59854
H          0.47203        3.74929        1.42086
H          2.04913        4.89143        3.04928
H          1.80069        3.17875        3.52952
H          3.31690        3.66845        2.70088
H          2.18738        0.27467       -1.38281
H          2.22510       -0.10937        0.38622
H          0.68595       -0.22534       -0.56081
