23
ETHYL_TRIMETHYLACETATE.gamout	Energy:    -425.3268397
C          0.36726       19.84342       -0.96444
C          1.25584       20.86746       -0.21617
C          0.69672       22.28397       -0.45561
C          1.23263       20.56552        1.30279
C          2.69963       20.81298       -0.74950
O          1.30016       23.20245       -0.98311
O         -0.58539       22.39292       -0.00551
C         -1.22965       23.68141       -0.17327
C         -0.91211       24.62437        0.98063
H          0.76699       18.81774       -0.81819
H          0.34944       20.04631       -2.05578
H         -0.67552       19.86826       -0.59108
H          1.85290       21.29223        1.86817
H          1.64422       19.55159        1.49078
H          0.20120       20.60415        1.70521
H          2.73611       21.04219       -1.83323
H          3.34720       21.54991       -0.23367
H          3.12607       19.80077       -0.59083
H         -0.90890       24.11515       -1.14276
H         -2.31180       23.44477       -0.21635
H         -1.47826       25.57180        0.86331
H         -1.19410       24.17268        1.95371
H          0.16793       24.87082        1.00087
