12
ETHYL_SULFATE-1.gamout	Energy:    -777.9515349
C         -3.76096       -2.56477        2.68468
C         -2.64856       -2.80412        1.66412
H         -4.44544       -1.75468        2.34884
H         -4.36049       -3.48847        2.83537
H         -3.33143       -2.28188        3.66934
O         -1.82974       -3.85417        2.12743
H         -2.04578       -1.87117        1.52913
H         -3.08826       -3.04471        0.66167
S         -0.32061       -4.00189        1.22215
O          0.27608       -5.18050        1.90371
O         -0.77900       -4.21650       -0.18632
O          0.36278       -2.69114        1.46469
