60
ETHYL_OLEATE.gamout	Energy:    -934.7729792
C         -0.74541        0.15863       -0.32238
O         -1.06492        1.32723       -0.19730
O         -1.39926       -0.86337        0.29311
C          0.43219       -0.34718       -1.14353
C         -2.52949       -0.48925        1.11450
C         -3.17922       -1.76366        1.62125
H         -3.22714        0.12716        0.50770
H         -2.17128        0.15943        1.94305
H          1.29006       -0.45923       -0.44044
H          0.70705        0.47710       -1.83342
C          0.20524       -1.67096       -1.89595
H         -0.65665       -1.55413       -2.59078
H         -0.09945       -2.44907       -1.16349
C          1.43854       -2.14569       -2.68441
H          2.30203       -2.24859       -1.98677
H          1.73872       -1.35760       -3.41403
C          1.23067       -3.47690       -3.43304
H          0.36218       -3.37681       -4.12446
H          0.93808       -4.26408       -2.69964
C          2.45884       -3.95433       -4.23305
H          3.33593       -4.03577       -3.54980
H          2.73580       -3.17252       -4.97860
C          2.26237       -5.29619       -4.96344
H          1.38128       -5.22209       -5.64233
H          2.00530       -6.08938       -4.22476
C          3.49171       -5.74468       -5.78444
H          4.38092       -5.80831       -5.12080
H          3.72636       -4.94424       -6.52718
C          3.28325       -7.04663       -6.51595
C          4.09077       -8.13086       -6.52632
C          5.42167       -8.30328       -5.83946
H          5.34547       -9.13620       -5.10026
H          5.68161       -7.39628       -5.25216
C          6.56928       -8.62505       -6.82450
H          2.35215       -7.10757       -7.11059
H          3.76468       -8.99357       -7.13770
H          6.64970       -7.79717       -7.56507
H          6.29867       -9.53144       -7.41422
C          7.93711       -8.84281       -6.14986
H          7.84814       -9.65899       -5.39580
H          8.20792       -7.92853       -5.57202
C          9.07675       -9.17535       -7.13369
H          9.15984       -8.35680       -7.88592
H          8.80145      -10.08661       -7.71433
C         10.45221       -9.39342       -6.47276
H         10.36941      -10.20332       -5.71116
H         10.73523       -8.47671       -5.90438
C         11.58147       -9.74068       -7.46146
H         11.66795       -8.92844       -8.22037
H         11.29923      -10.65505       -8.03418
C         12.95379       -9.96294       -6.80275
H         12.86602      -10.76931       -6.03922
H         13.24296       -9.04698       -6.23822
C         14.06597      -10.31810       -7.79886
H         14.20509       -9.51507       -8.55414
H         13.83402      -11.25387       -8.35162
H         15.03807      -10.46652       -7.28589
H         -2.47577       -2.35958        2.23814
H         -3.52092       -2.39739        0.77741
H         -4.06086       -1.51662        2.24715
