6
ETHYLENE.gamout	Energy:     -78.5243064
C          0.67095       -0.00000       -0.00017
C         -0.67095        0.00000        0.00008
H          1.25146        0.93813        0.00016
H          1.25146       -0.93813        0.00124
H         -1.25146       -0.93813       -0.00058
H         -1.25146        0.93813        0.00061
