22
ETHYLPARABEN.gamout	Energy:    -574.2537971
O          3.46664        4.98883       -0.07023
C          4.03620        3.75026       -0.02822
O          3.48167        2.74728       -0.45371
C          5.39093        3.77697        0.59571
C          2.14604        5.05978       -0.65130
C          5.98666        4.96514        1.07339
C          6.10201        2.55928        0.71336
C          1.69008        6.50771       -0.60049
C          7.26011        4.93821        1.65451
C          7.37255        2.52273        1.29201
C          7.96174        3.71643        1.76818
O          9.20092        3.63147        2.32421
H          1.46584        4.38665       -0.08525
H          2.18544        4.66682       -1.69051
H          5.43949        5.91469        0.98523
H          5.62567        1.64098        0.33710
H          0.67502        6.60279       -1.03712
H          2.37584        7.16379       -1.17462
H          1.65329        6.87629        0.44506
H          7.71989        5.87023        2.02604
H          7.93428        1.58154        1.38920
H          9.47986        4.52417        2.60574
