29
ETHYL_OENANTHATE.gamout	Energy:    -503.8918500
C          5.49267        2.61369        1.59534
C          4.37683        1.70521        1.10101
O          3.17035        2.12072        1.57440
O          4.51652        0.73265        0.38034
C          6.88519        2.17697        1.13300
C          2.02406        1.33386        1.17026
C          8.00535        3.09593        1.64533
C          0.78963        1.94291        1.81167
C          9.41925        2.71616        1.16727
C          9.94363        1.37287        1.70189
C         11.37792        1.05677        1.25981
H          5.42592        2.65400        2.70572
H          5.25414        3.64895        1.26125
H          7.05518        1.13060        1.46568
H          6.90466        2.13814        0.02162
H          2.18406        0.27901        1.48230
H          1.96270        1.33006        0.06024
H          7.78487        4.14162        1.33116
H          7.99047        3.10980        2.76048
H         -0.11295        1.36567        1.52459
H          0.86862        1.93367        2.91783
H          0.64617        2.99320        1.48563
H         10.12677        3.52105        1.47021
H          9.43909        2.70200        0.05256
H          9.27184        0.54892        1.37378
H          9.89025        1.38125        2.81499
H         11.45863        1.00650        0.15264
H         12.09233        1.83466        1.60578
H         11.72528        0.08269        1.66246
