20
ETHYL_BUTYRATE.gamout	Energy:    -386.0430043
C          5.10818        2.79629        1.91843
C          3.61758        2.89402        1.64449
O          2.91800        2.03520        2.44158
O          3.10146        3.60824        0.80302
C          5.77055        1.68340        1.07505
C          1.48836        1.96043        2.21107
C          7.28640        1.59939        1.28488
C          1.14819        0.94446        1.12660
H          5.55284        3.77934        1.66075
H          5.27539        2.60102        2.99833
H          5.29619        0.71024        1.32934
H          5.54606        1.86831        0.00158
H          1.11900        2.97060        1.93977
H          1.06151        1.66379        3.19027
H          7.73332        0.79111        0.66996
H          7.78751        2.55022        1.00427
H          7.53906        1.39192        2.34649
H          1.54831       -0.05852        1.37998
H          0.04663        0.86013        1.01895
H          1.56199        1.25940        0.14790
