10
ETHYLACETYLENE.gamout	Energy:    -155.8449575
C          2.20674        0.79272        0.88798
C          0.99543        0.96693        0.88750
C          3.66106        0.61275        0.88880
C          4.44934        1.93913        0.89301
H         -0.07551        1.11486        0.88686
H          3.94817        0.00169        1.77430
H          3.94984        0.00639        0.00062
H          5.54092        1.74238        0.89344
H          4.20741        2.54863       -0.00104
H          4.20572        2.54365        1.78996
