8
ETHYLENEIMINE.gamout	Energy:    -133.8214342
C          2.04349        1.42632        0.95496
C          0.55590        1.55577        0.93968
N          1.18932        0.26068        1.24802
H          2.59868        1.91554        1.77656
H          2.60557        1.36959        0.00566
H          0.01182        1.59585       -0.02094
H          0.07720        2.13494        1.75083
H          1.16489        0.09954        2.26576
