14
ETHYL_ACETATE.gamout	Energy:    -307.4777987
O          1.65416        2.09324        1.33804
C          1.46180        3.51394        1.53678
C          2.21269        3.91860        2.79405
C          0.95545        1.53752        0.30989
C          1.26093        0.05848        0.18463
O          0.20855        2.17028       -0.41375
H          1.83080        4.05586        0.63845
H          0.37333        3.72470        1.61114
H          2.06861        5.00105        2.98927
H          1.84403        3.35693        3.67658
H          3.30052        3.72785        2.69213
H          0.45163       -0.43801       -0.38088
H          2.21007       -0.06913       -0.37823
H          1.39735       -0.41270        1.17688
