24
ETHYL_TERT-PENTYL_ETHER.gamout	Energy:    -351.3303277
O          0.55607        0.45650        0.33312
C         -0.78024        0.67691       -0.17794
C         -1.31880       -0.59055       -0.90048
C         -1.59711        0.99398        1.08465
C         -0.82033        1.88435       -1.13625
C         -1.26612       -1.88275       -0.07681
C          1.60745        0.22171       -0.59304
C          2.88554       -0.01014        0.20464
H         -2.36444       -0.38379       -1.21977
H         -0.74647       -0.72832       -1.84498
H         -2.67157        1.12858        0.84381
H         -1.49834        0.17928        1.82874
H         -1.22144        1.92429        1.55722
H         -1.86795        2.12406       -1.41195
H         -0.37838        2.77791       -0.64859
H         -0.26887        1.69273       -2.07985
H         -1.58729       -2.75509       -0.68253
H         -1.92989       -1.83528        0.81128
H         -0.23860       -2.07741        0.29251
H          1.39421       -0.66746       -1.23689
H          1.74270        1.08926       -1.28455
H          3.74921       -0.17020       -0.47290
H          3.10226        0.86613        0.84943
H          2.78376       -0.89814        0.86152
