12
ETOSO3-1.gamout	Energy:    -777.9515213
S          0.39196        5.42535        2.16162
O          1.57391        5.20747        3.03715
O         -0.03662        4.25309        1.33406
C         -2.15211        5.78992        2.83263
O          0.33133        6.74465        1.45601
O         -0.87673        5.55051        3.38411
C         -3.18147        5.77683        3.96241
H         -3.18318        4.79331        4.47925
H         -4.20579        5.97350        3.57518
H         -2.93882        6.55171        4.72116
H         -2.40529        5.00822        2.07168
H         -2.17617        6.77235        2.29535
