25
FAP-1.gamout	Energy:   -2365.6607193
P          1.36633       -0.15873       -0.99901
C          3.08233        0.65870       -1.68825
C          3.00399        1.66782       -2.88042
C          0.82533        1.44909        0.10796
C         -0.40205        1.29170        1.06332
C          2.30044       -1.12345        0.49426
C          1.72628       -2.52117        0.92243
F         -0.05899       -0.92420       -0.52985
F          0.54687        0.53226       -2.28022
F          1.72221       -1.48539       -1.95106
F          3.60439       -1.37740        0.14838
F          2.34515       -0.41907        1.67387
F          2.63110       -3.11504        1.75855
F          1.53016       -3.36567       -0.10230
F          0.57781       -2.41101        1.61628
F          3.92087       -0.31504       -2.16846
F          3.76727        1.31602       -0.69439
F          2.51562        1.09485       -3.99590
F          4.26738        2.09625       -3.17625
F          2.27976        2.76471       -2.60016
F          0.46502        2.48310       -0.72087
F          1.83818        1.93263        0.89358
F         -0.24514        0.30288        1.95928
F         -1.54791        1.09242        0.38577
F         -0.56162        2.44786        1.77375
