23
FLUORENE.gamout	Energy:    -501.0576466
C          3.29459        1.42227        2.77335
C          4.43153        1.46212        3.70968
C          2.29437        2.31970        3.24132
C          3.09044        0.68385        1.59161
C          4.12981        2.38355        4.75141
C          5.65756        0.77063        3.70291
C          2.75602        2.98806        4.52291
C          1.09600        2.47853        2.53351
C          1.88591        0.84911        0.88607
C          5.05057        2.61208        5.78279
C          6.57597        1.00454        4.74065
C          0.89549        1.73815        1.35138
C          6.27657        1.91715        5.77309
H          3.85961       -0.01308        1.22210
H          5.89675        0.05626        2.89883
H          2.06489        2.78332        5.37188
H          2.80016        4.09632        4.42158
H          0.31788        3.17228        2.89210
H          1.71215        0.27880       -0.04052
H          4.82398        3.32435        6.59313
H          7.53933        0.47007        4.74823
H         -0.04275        1.85470        0.78591
H          7.00859        2.08716        6.57857
