12
FLUOROBENZENE.gamout	Energy:    -331.2383800
C          6.33195        1.87518       -0.67475
C          6.84799        0.61540       -0.33826
C          4.93664        2.04197       -0.72140
C          4.07894        0.96400       -0.43558
C          4.62108       -0.29022       -0.10056
C          6.01392       -0.47422       -0.04918
F          8.18666        0.44536       -0.29112
H          7.02441        2.70180       -0.89397
H          4.51852        3.02667       -0.98444
H          2.98720        1.10132       -0.47392
H          3.95507       -1.13846        0.12435
H          6.46293       -1.44479        0.21006
