4
FOR-1.gamout	Energy:    -189.0490102
C          0.60317       -0.62052        0.66061
O         -0.28288        0.23539        0.91219
O          1.80866       -0.49797        0.32449
H          0.23564       -1.74610        0.75761
