18
GALLIC_ACID.gamout	Energy:    -646.0340938
O          0.52647        2.23974        0.88933
C          1.22848        3.39223        0.66860
O          0.66767        4.46389        0.48699
C          2.70057        3.18667        0.67755
C          3.52112        4.31436        0.45981
C          3.28329        1.91767        0.89407
C          4.92004        4.19816        0.45411
C          4.67848        1.80302        0.88780
O          5.76790        5.24574        0.25025
C          5.51337        2.92760        0.67028
O          5.37320        0.63056        1.08415
O          6.86238        2.79533        0.66775
H         -0.41685        2.51082        0.85880
H          3.03691        5.29036        0.29427
H          2.64522        1.03754        1.06412
H          5.22954        6.04895        0.11649
H          4.74502       -0.10110        1.22715
H          7.04445        1.84528        0.83426
