14
HEPTAFLUOROBUTANOIC_ACID.gamout	Energy:   -1001.6178178
F         -0.29916        0.88930        1.57824
F         -1.11129        1.80653       -0.25878
F          0.66489        0.44652       -1.79165
F          1.58236        1.68787       -0.20835
F         -0.90009       -1.62882        0.54557
F         -1.81090       -0.67965       -1.20636
F         -2.60343       -0.27605        0.78837
O          2.15459       -0.52919        1.25785
O          2.00581       -1.60108       -0.74592
C         -0.50607        0.70371        0.25079
C          0.88265        0.54440       -0.46074
C         -1.48486       -0.49954        0.08151
C          1.74246       -0.67622       -0.01426
H          2.70150       -1.32050        1.46710
