19
HEPTENE-6-NITRILES.gamout	Energy:    -327.8325809
C         -1.83389       -0.06625        0.18045
C         -0.61569       -0.87863        0.09686
C         -0.40650       -1.52774       -1.29064
C          0.87613       -2.36727       -1.35974
C          1.09729       -3.02239       -2.73966
C          2.37912       -3.80967       -2.82698
C          2.46917       -5.12865       -3.07945
N         -2.81257        0.57734        0.22366
H          0.25005       -0.22758        0.35272
H         -0.65952       -1.65844        0.88935
H         -1.28944       -2.15949       -1.53094
H         -0.38116       -0.72767       -2.06241
H          1.75337       -1.72662       -1.11075
H          0.85101       -3.16254       -0.58101
H          0.23586       -3.68280       -2.98378
H          1.10458       -2.21952       -3.51413
H          3.31117       -3.23619       -2.65561
H          3.44271       -5.64283       -3.12451
H          1.56915       -5.74362       -3.25497
