22
HEXAMETHYLENETETRAMINE.gamout	Energy:    -454.4946110
C         -0.45112       -1.58018        0.40122
N         -1.41445       -0.51839        0.03614
N          0.95053       -1.10838        0.37548
C         -1.06257       -0.03085       -1.31478
C         -1.23314        0.60266        0.98310
N          0.32088        0.48478       -1.38984
C          1.23498       -0.60491       -0.98650
C          0.45260        1.57781       -0.40229
C          1.06400        0.02977        1.31336
N          0.14490        1.13657        0.97443
H         -0.68991       -1.94899        1.42262
H         -0.55944       -2.42829       -0.30946
H         -1.76663        0.78040       -1.60184
H         -1.17810       -0.86391       -2.04246
H         -1.93957        1.41921        0.71715
H         -1.47952        0.25266        2.00961
H          2.28216       -0.23266       -1.02372
H          1.13912       -1.44515       -1.70845
H          1.49215        1.97147       -0.43336
H         -0.23815        2.40330       -0.68196
H          2.10920        0.40858        1.29750
H          0.83908       -0.32603        2.34255
