29
HEXAMETHYLPHOSPHORAMIDE.gamout	Energy:    -819.9031272
P          0.67481       -0.08890        0.13412
O          2.12886       -0.45545        0.31808
N          0.15874        1.53045        0.33374
N         -0.28915       -0.88206        1.30040
N          0.19595       -0.41235       -1.47293
C          0.50256        2.50879       -0.69764
C          0.15878        2.10174        1.68198
C          0.25348       -2.07976        1.93452
C         -1.73129       -0.72070        1.40876
C          1.07639       -1.20271       -2.32621
C         -1.15297       -0.21684       -1.97774
H         -0.25289        3.32625       -0.71852
H          0.52003        2.02169       -1.69013
H          1.50175        2.97416       -0.51930
H         -0.66532        2.84324        1.78578
H          0.01080        1.30253        2.43230
H          1.11772        2.62385        1.91357
H          0.03026       -2.07426        3.02606
H          1.35109       -2.09094        1.79448
H         -0.17407       -3.01913        1.50607
H         -2.04017       -0.74570        2.47922
H         -2.04020        0.25803        0.99276
H         -2.30052       -1.52443        0.87961
H          0.67253       -2.22757       -2.51080
H          2.06421       -1.28934       -1.83602
H          1.21000       -0.70885       -3.31722
H         -1.12882        0.27008       -2.98141
H         -1.72959        0.44430       -1.30276
H         -1.71338       -1.17708       -2.09266
