12
HEXAFLUOROBENZENE.gamout	Energy:    -826.9980350
F          7.15165        2.89257       -0.94474
C          6.33877        1.86751       -0.67279
F          4.43061        3.23597       -1.04030
C          4.94264        2.04359       -0.72177
F          2.76150        1.13031       -0.48187
C          4.08644        0.96321       -0.43518
F          3.81329       -1.31829        0.17226
C          4.62617       -0.29320       -0.09962
F          6.53432       -1.66168        0.26782
C          6.02229       -0.46928       -0.05064
F          8.20343        0.44400       -0.29054
C          6.87849        0.61110       -0.33724
