8
HEXAFLUOROETHANE.gamout	Energy:    -674.7591870
C          2.04662        1.01442        0.00013
C          0.48838        1.01458       -0.00013
F          0.03079       -0.24899        0.00000
F          0.03152        1.64598       -1.09460
F          0.03115        1.64636        1.09396
F          2.50421        2.27799       -0.00000
F          2.50348        0.38302        1.09460
F          2.50385        0.38264       -1.09396
