9
HEXAFLUOROPROPYLENE.gamout	Energy:    -712.7842424
C         35.02117       30.89122        0.17222
C         33.69693       30.17903        0.04898
C         36.23494       30.42630       -0.19863
F         34.92910       32.11688        0.71887
F         32.83365       30.90760       -0.69673
F         33.83632       28.96694       -0.52416
F         33.12882       30.01290        1.26664
F         37.33875       31.13352       -0.04591
F         36.46499       29.24755       -0.74162
