30
HPY+1.gamout	Energy:    -484.1777268
C         -1.29520       -1.47425       -0.01770
C          0.14113       -0.98415        0.20415
H         -1.63597       -1.27983       -1.05674
H         -2.00822       -0.96691        0.66630
H         -1.38072       -2.56511        0.16222
C          0.31129        0.52509       -0.03337
H          0.83472       -1.54056       -0.46629
H          0.46277       -1.23058        1.24140
C          1.74919        1.02500        0.18605
H         -0.37958        1.08520        0.63759
H         -0.00723        0.77396       -1.07189
C          1.89691        2.53775       -0.05214
H          2.44093        0.47297       -0.49031
H          2.07380        0.77883        1.22255
C          3.34840        3.00641        0.12084
H          1.24051        3.10051        0.64774
H          1.54883        2.78723       -1.08015
N          3.50980        4.48174       -0.08757
H          4.02563        2.50243       -0.59986
H          3.72488        2.78882        1.13984
C          3.82752        5.29413        0.95818
C          3.94710        6.67392        0.78186
C          3.72804        7.22655       -0.49135
C          3.40272        6.37199       -1.56027
C          3.30132        5.00047       -1.33104
H          3.97857        4.80291        1.93064
H          3.05150        4.28052       -2.12363
H          3.22750        6.76022       -2.57451
H          4.20934        7.30337        1.64532
H          3.81333        8.31266       -0.65097
