4
HYDROGEN_PEROXIDE.gamout	Energy:    -151.4309072
O          0.87237       -0.08145        0.07122
O          2.34413       -0.07735       -0.00762
H          0.68604       -0.03170       -0.88907
H          2.53047       -0.12710        0.95267
