3
HYDROGEN_SULFIDE.gamout	Energy:    -399.4484738
S          0.15752        0.51640        0.00000
H         -0.91267       -0.31060        0.00000
H          1.01935       -0.52601        0.00000
