14
HYDROQUINONE.gamout	Energy:    -382.4139823
O         -0.24657        2.86550        0.19441
C          1.10627        2.64933        0.16168
C          2.05300        3.69382        0.09397
C          1.56278        1.31662        0.19787
C          3.42813        3.41484        0.06302
C          2.93790        1.03764        0.16686
C          3.88464        2.08213        0.09921
O          5.23748        1.86596        0.06648
H         -0.40595        3.82758        0.16319
H          1.71129        4.74295        0.06487
H          0.82438        0.50229        0.25068
H          4.16652        4.22916        0.01021
H          3.27961       -0.01150        0.19596
H          5.39687        0.90388        0.09773
