19
INDANE.gamout	Energy:    -348.7263749
C          3.34668        3.21212        0.88827
C          3.35088        1.80114        0.88803
C          4.75725        3.76833        0.88778
C          2.13030        3.91783        0.88901
C          4.76481        1.25336        0.88643
C          2.13881        1.08809        0.88873
C          5.68779        2.51363        0.89177
C          0.91839        3.20387        0.88965
C          0.92262        1.79470        0.88960
H          4.93044        4.41590       -0.00036
H          4.92933        4.42085        1.77244
H          2.12305        5.02050        0.88933
H          4.94125        0.60053        1.76999
H          4.94161        0.60836       -0.00287
H          2.13810       -0.01462        0.88888
H          6.35891        2.51623        0.00925
H          6.34928        2.51524        1.78154
H         -0.03957        3.74827        0.89036
H         -0.03201        1.24445        0.89021
