12
IODOBENZENE.gamout	Energy:    -529.3074834
I         -1.34719       -0.00000       -0.00005
C          0.78781        0.00001       -0.00019
C          1.47912        1.22427        0.00036
C          2.88598        1.21527        0.00032
C          3.59203       -0.00000       -0.00051
C          2.88597       -1.21527       -0.00103
C          1.47912       -1.22426        0.00197
H          0.92600        2.17471        0.00062
H          3.42911        2.17387        0.00088
H          4.69319       -0.00001       -0.00096
H          3.42909       -2.17388       -0.00171
H          0.92599       -2.17470        0.00161
