5
IODOMETHANE.gamout	Energy:    -337.7110631
I         -0.23715       -0.00000        0.00002
C          1.93515        0.00000       -0.00031
H          2.26584       -0.00000        1.05247
H          2.26954       -0.91142       -0.52535
H          2.26954        0.91142       -0.52535
