5
IODOMETHANE.gamout	Energy:    -337.7110541
I         -0.23672        0.00000        0.00002
C          1.93193       -0.00000       -0.00031
H          2.26085        0.00001        1.05259
H          2.26453       -0.91152       -0.52542
H          2.26445        0.91153       -0.52542
