20
ISO-CAPROIC_ACID.gamout	Energy:    -386.0525108
C          1.72064        1.51148       -0.09415
C          2.98888        0.65672       -0.02288
C          1.96587        3.03576       -0.06412
C          2.70943       -0.83288        0.06726
C          2.76801        3.53212       -1.28009
C          0.63209        3.79278        0.05885
O          3.86609       -1.55513        0.08369
O          1.61234       -1.35818        0.12341
H          1.14654        1.24370       -1.00947
H          1.06312        1.22652        0.75542
H          3.61003        0.92933        0.86084
H          3.66028        0.80954       -0.89612
H          2.56287        3.25900        0.85287
H          2.91632        4.63174       -1.24115
H          3.77477        3.06893       -1.34277
H          2.23316        3.30192       -2.22780
H          0.79357        4.88877        0.13138
H          0.06541        3.47328        0.95845
H         -0.01651        3.60998       -0.82590
H          3.58476       -2.49517        0.14825
