23
ISOAMYL_ACETATE.gamout	Energy:    -425.3252216
C          5.65747       -1.46730       -0.13106
C          5.26282       -0.03373       -0.53178
H         -0.46223        1.12315        1.34195
O          1.55197        0.18058        0.31861
H          6.13526        1.99131       -0.50923
H          4.91868       -2.22166       -0.47190
H          6.63909       -1.74914       -0.56668
H          5.74613       -1.55827        0.97392
C          3.93453        0.41604        0.11807
H          6.57349        0.98436        0.90752
H          7.34057        0.67406       -0.68131
O          0.27556       -1.43114       -0.64678
C         -0.78865        0.25650        0.73894
H         -1.51549        0.58543       -0.03115
H         -1.31447       -0.47617        1.38392
C          0.37013       -0.43987        0.05379
H          2.79765       -1.47246        0.04950
H          2.58854       -0.44344       -1.39087
C          2.72365       -0.41637       -0.28682
H          4.03769        0.39165        1.22692
H          3.73155        1.47632       -0.15040
C          6.38739        0.95882       -0.18849
H          5.11871       -0.01506       -1.63824
