15
ISOBUTANOL.gamout	Energy:    -233.4864479
C          2.55105        1.90490        1.08609
C          1.13331        1.52988        1.55991
C          0.08142        1.86733        0.49539
C          1.07878        0.05547        1.98260
O          2.68636        3.25960        0.67898
H          3.28922        1.63841        1.88457
H          2.81186        1.29213        0.19400
H          0.92026        2.15181        2.46487
H          0.17162        2.92535        0.17918
H         -0.94812        1.69857        0.87282
H          0.21748        1.23680       -0.41076
H          1.82307       -0.17273        2.77451
H          1.29034       -0.61473        1.12087
H          0.07753       -0.21557        2.37639
H          2.48280        3.81407        1.45632
