24
ISOBUTYLBENZENE.gamout	Energy:    -389.2110617
C          1.93553        2.10249        2.20180
C          2.69468        2.92129        1.12105
C          4.18859        3.05047        1.35103
C          2.40915        0.64063        2.25419
C          0.41728        2.18550        1.97090
C          4.68798        3.90810        2.35826
C          5.11997        2.31858        0.58258
C          6.06757        4.02579        2.59297
C          6.50256        2.43359        0.81213
C          6.98166        3.28750        1.82006
H          2.15881        2.57006        3.18944
H          2.51051        2.45467        0.12755
H          2.24564        3.93883        1.07670
H          1.88369        0.07880        3.05475
H          2.20117        0.12292        1.29182
H          3.49907        0.56868        2.44804
H          0.13893        1.74019        0.99038
H         -0.14165        1.63507        2.75673
H          0.05531        3.23572        1.97426
H          3.98083        4.49902        2.96466
H          4.75201        1.64913       -0.21270
H          6.43302        4.70355        3.38131
H          7.20979        1.85399        0.19726
H          8.06431        3.38135        2.00063
