26
ISOBUTYL_ISOBUTYRATE.gamout	Energy:    -464.6094299
O          2.75682        1.16488        0.04039
C          3.93712        0.57239       -0.29991
C          5.13221        1.45231        0.07114
O          4.00186       -0.52164       -0.83178
C          1.56074        0.40685       -0.25324
C          5.11622        2.77543       -0.72022
C          5.19585        1.69770        1.59128
C          0.33477        1.20907        0.18789
C          0.20897        2.53519       -0.57861
C         -0.92583        0.34003        0.03278
H          6.01590        0.85658       -0.23910
H          1.52826        0.18443       -1.34363
H          1.62203       -0.57126        0.27190
H          6.02905        3.36702       -0.49940
H          5.08504        2.59727       -1.81481
H          4.23479        3.38960       -0.44506
H          6.10733        2.27565        1.85050
H          5.22825        0.74485        2.15928
H          4.31319        2.27370        1.93586
H          0.46800        1.43909        1.27033
H         -0.65829        3.12562       -0.21682
H          1.11915        3.15711       -0.46350
H          0.05921        2.35014       -1.66487
H         -1.82888        0.88217        0.38074
H         -0.85208       -0.60105        0.61720
H         -1.09384        0.06312       -1.03084
