12
ISOBUTYRONITRILE.gamout	Energy:    -211.2168038
C          2.07235        2.42220        0.56212
C          2.15698        1.15467        1.31150
C          0.89912        0.95232        2.18658
C          3.46393        1.08822        2.13371
N          1.99882        3.43658       -0.02111
H          2.18416        0.34947        0.54130
H          0.95189       -0.03059        2.69744
H         -0.02706        0.98148        1.57932
H          0.82984        1.74290        2.96148
H          4.35622        1.21269        1.48894
H          3.53521        0.10632        2.64422
H          3.48331        1.88256        2.90783
