14
ISOBUTYRIC_ACID.gamout	Energy:    -307.4859448
C          0.06121       19.87057       -0.12094
C          1.33032       20.73713        0.00425
C          0.99249       22.24130        0.04050
C          2.15513       20.33417        1.22403
O          3.28911       19.89138        1.20399
O          1.47232       20.52933        2.39017
H         -0.48776       20.13192       -1.04899
H          0.30572       18.78930       -0.16454
H         -0.61689       20.03487        0.74128
H          1.99725       20.53486       -0.85956
H          1.90729       22.86378        0.12096
H          0.46109       22.53799       -0.88720
H          0.33799       22.47875        0.90408
H          2.08797       20.24347        3.10179
