29
ISOBUTYL_VALERATE.gamout	Energy:    -503.8938285
O          6.96652        2.02743        1.26970
C          5.75892        2.37382        1.79544
C          4.65046        1.50062        1.22826
O          5.61714        3.26293        2.61574
C          8.10572        2.77850        1.74735
C          3.25131        1.90265        1.70191
C          9.37297        2.23537        1.08278
C          2.13990        0.99659        1.15145
C         10.57520        3.11250        1.47100
C          9.60790        0.75545        1.42725
C          0.73820        1.39496        1.62791
H          4.88398        0.44862        1.51093
H          4.73368        1.51854        0.11877
H          8.15984        2.69313        2.85633
H          7.95045        3.85536        1.51761
H          3.05646        2.95989        1.41499
H          3.23326        1.89632        2.81373
H          9.22149        2.31682       -0.01846
H          2.34881       -0.05793        1.44547
H          2.17377        1.00515        0.03781
H         10.42201        4.17430        1.18435
H         11.50149        2.75991        0.97233
H         10.75755        3.08305        2.56740
H          8.73586        0.13467        1.13997
H          9.77358        0.62410        2.51916
H         10.50149        0.35807        0.90233
H          0.66299        1.35816        2.73575
H          0.48263        2.43034        1.31600
H         -0.04188        0.72091        1.21716
