24
ISOPHORONE.gamout	Energy:    -426.2937809
C         -2.26467        1.69223        0.88647
C         -1.12230        0.91316        0.29248
C          0.10023        1.47313        0.06958
C         -1.40077       -0.53017       -0.07707
C          1.23062        0.72897       -0.52968
C          0.42529       -1.72544        1.22174
C          0.91109       -0.67883       -1.03771
C         -0.14173       -1.43027       -0.18599
C         -0.51585       -2.76257       -0.86514
O          2.35058        1.22561       -0.64229
H         -1.99704        2.74992        1.07671
H         -2.59836        1.23357        1.84397
H         -3.14949        1.66921        0.21144
H          0.31347        2.51998        0.34528
H         -1.94234       -0.53189       -1.05450
H         -2.12058       -0.96785        0.65162
H          0.69653       -0.79791        1.76689
H          1.33886       -2.35300        1.15374
H         -0.31562       -2.27757        1.83819
H          1.86440       -1.24141       -1.11796
H          0.52160       -0.55955       -2.07690
H         -0.91459       -2.60163       -1.88955
H         -1.29027       -3.30475       -0.28112
H          0.36935       -3.42769       -0.94935
