13
ISOPRENE.gamout	Energy:    -195.1586101
C          1.41724        2.76497       -0.61253
C          2.56210        2.03473       -1.17406
C          2.48080        0.53101       -1.28863
C          3.66323        2.72075       -1.57626
C          0.26042        2.21712       -0.17369
H          1.54053        3.86174       -0.55589
H          1.62532        0.22109       -1.92713
H          3.40605        0.10920       -1.72677
H          2.32425        0.05893       -0.29450
H          4.53948        2.20672       -2.00160
H          3.71480        3.81823       -1.48883
H          0.07675        1.13088       -0.20376
H         -0.54763        2.84412        0.23380
