23
ISOPENTYL_ACETATE.gamout	Energy:    -425.3252646
C          1.95591        2.13818        2.37658
C          3.33022        2.30490        1.68997
C          1.30117        0.78183        2.05536
C          1.02142        3.29981        1.99576
C          4.41392        1.37496        2.22468
O          5.64439        1.68724        1.53089
C          6.72362        0.92457        1.86027
O          6.68093        0.01832        2.67163
C          7.95804        1.38303        1.11055
H          2.12275        2.18665        3.47905
H          3.22262        2.14180        0.59339
H          3.68519        3.35186        1.81411
H          0.32337        0.67695        2.57062
H          1.92994       -0.07774        2.36699
H          1.11370        0.68415        0.96358
H          0.84228        3.32275        0.89846
H          1.45162        4.28212        2.28363
H          0.03321        3.20321        2.49209
H          4.17672        0.30089        2.06813
H          4.56910        1.51073        3.31833
H          7.69969        1.80255        0.11995
H          8.45851        2.18307        1.69645
H          8.66593        0.53961        1.01144
