27
ISOPROPYLCYCLOHEXANE.gamout	Energy:    -353.5425629
C          1.78990        0.00000        0.30981
C          2.56677       -1.25624       -0.13001
C          2.56677        1.25624       -0.13003
C          0.31592        0.00000       -0.19272
C         -0.46725       -1.26125        0.24368
C         -1.92513       -1.26379       -0.25137
C         -2.68114       -0.00000        0.18646
C         -1.92513        1.26379       -0.25137
C         -0.46725        1.26125        0.24369
H          1.75112        0.00001        1.42641
H          3.61287       -1.22193        0.24053
H          2.11848       -2.19540        0.25131
H          2.61092       -1.32907       -1.23923
H          2.61093        1.32905       -1.23925
H          2.11848        2.19540        0.25127
H          3.61287        1.22193        0.24052
H          0.35351        0.00000       -1.31145
H          0.04139       -2.17943       -0.11704
H         -0.45717       -1.31740        1.35832
H         -1.93100       -1.32484       -1.36439
H         -2.44742       -2.17644        0.11034
H         -3.71443        0.00000       -0.22428
H         -2.78649       -0.00000        1.29637
H         -1.93100        1.32485       -1.36438
H         -2.44742        2.17644        0.11035
H         -0.45718        1.31738        1.35833
H          0.04140        2.17943       -0.11701
