23
ISOPROPYL_N-BUTYRATE.gamout	Energy:    -425.3319997
C         -0.24197        0.18914       -0.20660
C         -1.51680       -0.49442        0.26596
C         -2.79909        0.22843       -0.15672
C         -4.07088       -0.47733        0.32857
O         -0.19137        1.21556       -0.86226
O          0.85130       -0.50630        0.20724
C          2.16495        0.01274       -0.16898
C          2.63082        1.02228        0.88109
C          3.07953       -1.20059       -0.30938
H         -1.49744       -1.54143       -0.11288
H         -1.45261       -0.59526        1.37301
H         -2.76831        1.27208        0.22424
H         -2.81032        0.32348       -1.26405
H         -4.10058       -0.54992        1.43720
H         -4.98246        0.06683        0.00643
H         -4.14098       -1.51181       -0.07136
H          2.04628        0.53183       -1.14419
H          2.71317        0.54495        1.87990
H          3.62505        1.43238        0.60707
H          1.92043        1.87017        0.94533
H          2.68844       -1.90404       -1.07164
H          4.09540       -0.88107       -0.61978
H          3.16438       -1.74385        0.65474
