17
ISOQUINOLINE.gamout	Energy:    -401.6361215
C         -1.92855        2.43487       -1.64988
C         -0.81347        1.57273       -1.86094
C         -2.91667        2.08973       -0.73684
C         -0.69645        0.37856       -1.16094
C         -1.69587       -0.00393       -0.21505
C         -2.82354        0.87008       -0.00265
C         -3.80748        0.45848        0.95273
C         -1.65422       -1.20964        0.54641
C         -2.67930       -1.48634        1.44187
N         -3.75071       -0.66618        1.65061
H         -2.00168        3.37698       -2.21594
H         -0.03761        1.86008       -2.58859
H         -3.78221        2.75168       -0.56809
H          0.16701       -0.28626       -1.32609
H         -4.68242        1.11445        1.13265
H         -0.81402       -1.91202        0.42225
H         -2.66281       -2.41511        2.04001
