5
KETENE.gamout	Energy:    -152.4910620
C          2.37456        0.24167        0.93912
C          1.11961        0.66451        0.99291
O          0.00562        1.03984        1.04150
H          2.90841       -0.00121        1.86856
H          2.87446        0.13636       -0.03397
