24
KETO_D_FRUCTOSE.gamout	Energy:    -686.6685615
C          0.06068       -0.08630       -0.20545
C          1.49295        0.33518       -0.51942
H         -0.16612        0.15537        0.86119
O         -0.76242        0.67099       -1.09798
H         -0.04564       -1.18539       -0.34979
C          2.53593       -0.27144        0.42744
O          1.58470        1.76483       -0.45205
H          1.75078       -0.02008       -1.54644
O          2.60107       -1.64959        0.11671
H          2.20774       -0.10888        1.48557
C          3.90015        0.49567        0.25978
H          3.90618        1.29039        1.05375
O          4.11488        1.06390       -1.01639
C          5.08300       -0.39392        0.60465
C          6.40319       -0.16919       -0.10173
H          6.68250        0.91011       -0.00724
H          6.18825       -0.30766       -1.19331
O          7.39389       -1.02631        0.38101
H         -1.68486        0.61765       -0.79030
H          6.92371       -1.58629        1.04417
H          3.37750        1.71142       -1.12201
H          0.74940        2.07377       -0.86906
H          3.24255       -2.03007        0.75571
O          4.99670       -1.30287        1.43754
