33
KETOPROFEN.gamout	Energy:    -843.2177092
O          1.95972       -2.26414       -0.08334
O         -2.18580        2.52060        0.08468
O          4.01198       -2.09640       -1.01786
C          3.25455       -0.30726        0.46539
C          2.25612        0.73677       -0.03842
C          0.86411        0.58014        0.14010
C         -0.04267        1.57055       -0.29650
C          2.72510        1.90374       -0.67712
C          3.15625       -0.53988        1.99110
C          0.45494        2.74737       -0.90308
C          1.83116        2.90358       -1.10397
C         -1.52819        1.48672       -0.04711
C          3.14777       -1.63021       -0.30110
C         -2.21493        0.14670        0.04644
C         -1.77638       -1.00470       -0.64795
C         -3.41645        0.08313        0.79049
C         -2.51968       -2.19609       -0.58430
C         -4.14290       -1.11216        0.87243
C         -3.69498       -2.25629        0.18426
H          4.27421        0.05469        0.22546
H          0.48422       -0.32028        0.64448
H          3.80841        2.03513       -0.83469
H          3.31298        0.41557        2.53097
H          2.16314       -0.93895        2.27867
H          3.92730       -1.26104        2.33250
H         -0.26202        3.52692       -1.20257
H          2.21891        3.81289       -1.59002
H         -0.86651       -0.96357       -1.26554
H         -3.76429        0.99869        1.29324
H         -2.17994       -3.08347       -1.14179
H         -5.06839       -1.15257        1.46848
H         -4.26899       -3.19503        0.24086
H          2.00438       -3.09221       -0.61201
