31
L-MENTHOL.gamout	Energy:    -467.9885864
C         -4.98169        2.76945        1.02294
C         -4.63368        2.37344       -0.42197
H         -5.43716        1.91727        1.56950
H         -5.71526        3.60236        1.03302
H         -4.09240        3.11146        1.59352
C         -5.89832        1.93158       -1.18159
H         -6.32861        1.01974       -0.72322
H         -5.67225        1.70274       -2.24460
H         -6.66745        2.73271       -1.16897
C         -3.47057        1.33856       -0.52386
H         -4.25600        3.29112       -0.93140
C         -2.08719        2.01570       -0.40102
C         -0.91997        1.03852       -0.59593
H         -2.00353        2.49641        0.60120
H         -2.02132        2.83894       -1.14357
C         -0.98465       -0.14722        0.38082
H          0.04929        1.57109       -0.48757
H         -0.94288        0.64115       -1.63776
C         -2.36689       -0.81194        0.27128
C         -3.53215        0.17134        0.47888
H         -2.44932       -1.63480        1.01824
H         -2.48446       -1.28297       -0.73197
H         -3.52903        0.88388       -1.54086
C          0.15931       -1.14461        0.15898
H         -0.88869        0.26188        1.41552
H          1.14757       -0.64896        0.25728
H          0.10832       -1.59179       -0.85777
H          0.12719       -1.97667        0.89333
O         -4.79109       -0.49059        0.34342
H         -3.43416        0.60626        1.50776
H         -4.81571       -1.20703        1.00551
