20
L_ASCORBIC_ACID.gamout	Energy:    -684.2905737
C          6.00588        5.30438        4.52964
C          7.12001        4.41711        4.17354
O          4.86430        4.91283        3.83502
O          6.02768        6.23686        5.31119
C          6.65821        3.47408        3.30141
O          8.33407        4.58575        4.74631
C          5.20859        3.80556        2.99414
O          7.28245        2.42380        2.74550
C          4.27556        2.61355        3.24137
O          2.17828        1.59741        3.00407
C          2.80629        2.87745        2.92001
O          4.75877        1.57069        2.38435
H          8.23237        5.37435        5.32667
H          5.09995        4.11703        1.92694
H          6.56496        1.82902        2.40094
H          4.36213        2.31323        4.31459
H          1.27756        1.66597        2.63994
H          2.72670        3.30918        1.89288
H          2.38651        3.61324        3.64374
H          4.03898        0.90154        2.36397
