22
LEUCINE.gamout	Energy:    -441.3613517
C          1.32066        1.70016        0.72531
C          2.80336        1.28207        0.66412
C          3.47875        1.73426       -0.66659
N          3.17301       -0.12945        0.90345
C          0.34252        1.09923       -0.31502
O          3.16507        2.74012       -1.27291
O          4.47693        0.91376       -1.03182
C         -0.09481       -0.34817       -0.01184
C         -0.90374        1.99838       -0.42970
H          1.33002        2.80129        0.58305
H          0.93067        1.52059        1.75396
H          3.21459       -0.35251        1.90537
H          2.48701       -0.76852        0.48121
H          0.85330        1.11438       -1.30509
H          4.41970        0.18369       -0.33423
H         -0.57327       -0.42098        0.98977
H          0.73699       -1.08370       -0.03411
H         -0.83707       -0.69900       -0.75936
H         -0.63030        3.03005       -0.73244
H         -1.44033        2.06036        0.54253
H         -1.61856        1.60213       -1.18092
H          3.33732        1.87299        1.44362
