16
LEVULINIC_ACID.gamout	Energy:    -420.7331625
O         -0.21981        3.19046        0.32108
O         -0.43385       -1.43183        1.35253
O         -1.36396       -1.82000       -0.67368
C          0.69706        0.97141        0.11834
C         -0.73623        0.45865       -0.07346
C          0.77984        2.49986        0.19084
C          2.17551        3.10292        0.12350
C         -0.88971       -1.03578        0.12637
H          1.37923        0.59824       -0.67722
H          1.12010        0.58105        1.07230
H         -1.11698        0.69941       -1.08443
H         -1.39152        0.98692        0.65290
H          2.81787        2.69029        0.93096
H          2.11559        4.20289        0.22045
H          2.66604        2.83935       -0.83800
H         -0.57973       -2.40373        1.38280
