26
LIMONENE.gamout	Energy:    -390.3755295
C          2.00201        2.96826        2.96149
C          3.36732        3.65144        3.13697
C          4.08716        3.80822        1.77890
C          2.04889        1.74825        2.05692
C          3.11824        1.51032        1.25991
C          0.84547        0.83993        2.09664
C          4.32744        2.40969        1.16095
C          5.35973        4.65496        1.85856
C          5.36391        5.91655        1.02871
C          6.41123        4.30286        2.62975
H          1.59031        2.67512        3.95436
H          1.25836        3.69292        2.54892
H          3.24460        4.64186        3.62497
H          4.00518        3.04454        3.81773
H          3.37524        4.33626        1.10296
H          3.11957        0.60143        0.63031
H          0.70703        0.39733        3.10894
H         -0.08965        1.40212        1.87417
H          0.92426        0.00798        1.36759
H          5.20251        1.92617        1.65682
H          4.63060        2.51788        0.09486
H          6.31527        6.47893        1.11921
H          5.20027        5.68596       -0.04784
H          4.53345        6.59415        1.32975
H          7.31961        4.92600        2.67899
H          6.40853        3.38319        3.23840
