98
LUTEIN.gamout	Energy:   -1707.0373201
O         14.28155       -2.17779        0.18373
O        -15.02625        0.73245       -0.49697
C         11.93177       -0.42888       -1.27365
C         11.16343        0.31747       -0.12272
C         12.13005       -1.90042       -0.85309
C         12.87084       -2.09973        0.47541
C         11.83808        0.09761        1.23580
C        -11.23036        0.99557       -1.02267
C         11.13190       -0.37355       -2.58824
C         13.29059        0.25994       -1.50983
C        -12.70341        1.45145       -0.88385
C         12.57689       -1.01071        1.47844
C        -13.66945        0.30304       -0.60431
C        -10.87001       -0.08087        0.03673
C          9.69765       -0.05814       -0.00235
C        -13.29315       -0.32695        0.72684
C        -11.81935       -0.62326        0.87517
C        -10.34652        2.25677       -0.85673
C        -10.99233        0.42696       -2.44132
C         11.62320        1.16130        2.28377
C          8.64537        0.81001       -0.09575
C         -9.45629       -0.47039        0.07005
C        -11.51890       -1.51695        2.05651
C          7.22876        0.49122        0.02577
C         -8.94279       -1.72892        0.28475
C          6.82691       -0.93908        0.28178
C         -7.54629       -2.14051        0.30764
C          6.30380        1.52174       -0.10235
C         -7.27209       -3.63154        0.35034
C         -6.49293       -1.23507        0.27966
C          4.87473        1.44938       -0.03915
C         -5.09834       -1.54908        0.26327
C          4.05066        2.55716       -0.16266
C          2.60719        2.63028       -0.12917
C         -4.09466       -0.58818        0.21850
C         -2.67492       -0.80793        0.19085
C          1.98665        4.01062       -0.21768
C          1.79352        1.50134       -0.02998
C         -1.82290        0.30188        0.12626
C         -2.14984       -2.22226        0.22715
C          0.37081        1.48450        0.00964
C         -0.39890        0.32433        0.08808
H         11.20778        1.40715       -0.34993
H         12.69821       -2.45066       -1.63085
H         11.13679       -2.39314       -0.78164
H         12.53971       -3.07596        0.91345
H         10.15950       -0.89969       -2.50816
H         10.92083        0.67522       -2.88674
H         11.70543       -0.84501       -3.41381
H         13.92686        0.23811       -0.60656
H         13.84831       -0.25988       -2.31513
H         13.14439        1.31530       -1.82126
H        -12.80404        2.18349       -0.05244
H        -12.99666        1.98529       -1.81407
H         13.03134       -1.13267        2.47945
H        -13.56409       -0.46977       -1.40777
H          9.49305       -1.12268        0.21367
H        -13.87824       -1.26100        0.87840
H        -13.63308        0.35896        1.54026
H         -9.28633        2.07314       -1.12077
H        -10.38459        2.64549        0.18132
H        -10.71044        3.05810       -1.53372
H        -11.66574       -0.42510       -2.66549
H         -9.95255        0.05989       -2.54927
H        -11.15956        1.21180       -3.20867
H         10.54135        1.33317        2.47641
H         12.04115        2.13483        1.94444
H         12.10556        0.89547        3.24542
H         14.75439       -2.19075        1.03764
H         -8.73796        0.32883       -0.18139
H          8.86596        1.87650       -0.29406
H        -11.79569       -2.57698        1.85581
H        -10.45477       -1.49410        2.35530
H        -12.13894       -1.20229        2.92464
H        -15.27694        1.12964       -1.35200
H         -9.66232       -2.55561        0.41090
H          5.73292       -1.05978        0.37777
H          7.16818       -1.60913       -0.53751
H          7.28987       -1.32399        1.21669
H          6.72312        2.53041       -0.27664
H         -6.76763       -3.98541       -0.57555
H         -6.61518       -3.91137        1.20146
H         -8.20988       -4.21128        0.45085
H         -6.74195       -0.15931        0.27249
H          4.41419        0.45896        0.11939
H         -4.80820       -2.61358        0.27968
H          4.55707        3.52967       -0.30281
H         -4.41495        0.46996        0.19181
H          1.33030        4.22635        0.65236
H          1.36230        4.12892       -1.12966
H          2.76518        4.79674       -0.24508
H          2.28711        0.51459        0.01379
H         -2.32016        1.28900        0.09840
H         -2.53571       -2.81899       -0.62772
H         -1.04673       -2.25989        0.18604
H         -2.46717       -2.74835        1.15380
H         -0.16680        2.44974       -0.02773
H          0.14460       -0.63785        0.11980
