15
M-CHLOROBENZOIC_ACID.gamout	Energy:    -880.0125240
Cl         7.38617        3.25175       -0.86593
C          6.30918        1.89542       -0.62356
O          5.79360       -2.70731        0.82405
C          6.60301       -1.78708        0.22591
O          7.76271       -2.04940       -0.01468
C          5.96952       -0.45316       -0.09767
C          6.84038        0.63529       -0.31181
C          4.57577       -0.27403       -0.23770
C          4.91849        2.08447       -0.75071
C          4.05839        0.99096       -0.56339
H          4.93932       -2.28737        1.05183
H          7.92500        0.47371       -0.22996
H          3.88151       -1.12429       -0.12990
H          4.52526        3.08054       -1.00179
H          2.97234        1.12833       -0.68247
