24
M-CYMENE.gamout	Energy:    -389.2134079
C          0.92812        2.87593        0.61003
C          1.67368        1.85060        1.49017
C          1.26315        1.97812        2.97198
C          3.18892        1.94010        1.31155
C          3.89720        3.11155        1.66345
C          3.92075        0.85437        0.79005
C          5.29418        3.22057        1.51104
C          5.31518        0.94148        0.62706
C          6.02843        4.48212        1.91043
C          5.99759        2.11347        0.98362
H          1.17812        3.91821        0.90181
H          1.19076        2.75617       -0.46128
H         -0.17188        2.75680        0.70924
H          1.36903        0.83585        1.14819
H          0.16670        1.84740        3.09367
H          1.77037        1.21612        3.59895
H          1.52557        2.97690        3.38221
H          3.34661        3.97621        2.07251
H          3.39065       -0.07039        0.50671
H          5.87306        0.08463        0.21577
H          6.69046        4.30531        2.78600
H          6.67656        4.85477        1.08906
H          5.32559        5.29497        2.18296
H          7.09082        2.17518        0.85209
