12
M-DIBROMOBENZENE.gamout	Energy:   -5379.1124073
Br         7.48808        3.32004       -1.05881
C          6.32114        1.85747       -0.66991
C          6.88176        0.61147       -0.33708
C          4.92942        2.04915       -0.72309
C          6.00922       -0.45453       -0.05448
C          4.08585        0.96258       -0.43512
Br         6.74542       -2.15854        0.40016
C          4.61329       -0.29590       -0.09906
H          7.97128        0.47474       -0.29924
H          4.51414        3.03279       -0.98568
H          2.99354        1.09942       -0.47350
H          3.95182       -1.14481        0.12578
