24
M-DIETHYLBENZENE.gamout	Energy:    -389.2140239
C         -1.00616        0.53866       -2.24140
C         -1.85686        0.15017       -3.28921
C         -3.00601       -0.61216       -3.02209
C         -3.32209       -0.99703       -1.70105
C         -2.45248       -0.59698       -0.66388
C         -1.29494        0.17230       -0.90879
H         -0.11151        1.14662       -2.45726
H         -1.62773        0.45359       -4.32364
H         -3.67486       -0.90459       -3.84896
C         -4.54212       -1.85064       -1.40763
H         -2.69549       -0.87963        0.37616
C         -0.37628        0.57682        0.23020
H         -5.33141       -1.63375       -2.15986
H         -4.96653       -1.56329       -0.42059
C         -4.24114       -3.36283       -1.41093
H         -3.83231       -3.68647       -2.39110
H         -5.15838       -3.95569       -1.21179
H         -3.49038       -3.62562       -0.63660
H         -0.98146        0.72956        1.15044
H          0.08467        1.56081       -0.00512
C          0.73648       -0.45073        0.51584
H          1.38019       -0.60408       -0.37559
H          0.31141       -1.43870        0.79044
H          1.38551       -0.11455        1.35145
