18
M-XYLENE.gamout	Energy:    -310.6491356
C          0.84443        3.78506        2.63428
C          1.76527        2.74828        2.02759
C          3.15473        2.77495        2.26989
C          1.25284        1.72830        1.19611
C          4.03519        1.82419        1.71050
C          2.11083        0.77184        0.63014
C          5.52353        1.88884        1.97820
C          3.49144        0.81684        0.88452
H          1.35860        4.38742        3.41005
H         -0.04441        3.31307        3.10345
H          0.46419        4.49094        1.86355
H          3.56839        3.56460        2.92101
H          0.16972        1.68284        0.99342
H          1.69780       -0.02019       -0.01534
H          5.75407        2.51623        2.86287
H          6.07145        2.32391        1.11323
H          5.95045        0.87970        2.15527
H          4.15798        0.05957        0.43925
