11
MALONIC_ACID.gamout	Energy:    -417.3431803
C          2.57626        1.72878        1.48087
C          1.80413        0.50547        0.96082
C          4.08262        1.45826        1.34435
O          1.92657       -0.61011        1.72483
O          1.17712        0.49717       -0.07480
O          4.54815        1.43964        0.06949
O          4.80727        1.21683        2.28433
H          2.25849        2.60869        0.88788
H          2.36398        1.91973        2.55131
H          2.52267       -0.43362        2.48352
H          3.81308        1.59536       -0.56053
