23
MDEGSO4-1.gamout	Energy:   -1046.0947920
O          4.54825       -3.55734       -2.44741
S          4.62107       -4.98301       -3.49837
O          6.08844       -5.06710       -3.71482
O          3.79538       -4.58836       -4.68065
C          3.24873       -3.28798       -1.98136
C          3.31195       -2.61388       -0.61981
H          2.67610       -4.24037       -1.85620
H          2.67102       -2.63730       -2.68769
O          3.77807       -1.27216       -0.73518
H          3.99895       -3.20732        0.03456
H          2.29616       -2.62072       -0.13977
C          4.08452       -0.68864        0.50036
C          4.50658        0.75715        0.29612
H          4.92169       -1.23388        1.01487
H          3.20938       -0.71081        1.20460
O          3.37123        1.56981        0.04546
H          5.05356        1.11822        1.20751
H          5.22226        0.79869       -0.56259
C          3.70960        2.87944       -0.32833
H          4.32996        2.90973       -1.26015
H          4.28328        3.42104        0.46978
H          2.76756        3.43544       -0.51770
O          4.02036       -6.06674       -2.65244
