8
MESO3-1.gamout	Energy:    -663.4925318
C          1.73418        0.00006        0.00077
S         -0.12628        0.00017        0.00038
O         -0.47537       -0.01690       -1.46347
O         -0.47911       -1.25851        0.74633
O         -0.48010        1.27548        0.71699
H          2.08983        0.90441       -0.53333
H          2.09397        0.00915        1.04956
H          2.08898       -0.91387       -0.51733
