59
METHYL_OCTADECANOATE.gamout	Energy:    -896.7141889
C          0.55245       -0.29859        0.37393
C          2.08278       -0.24461        0.28521
C          2.60966        0.07365       -1.12421
C          4.14390        0.12798       -1.22458
C          4.67656        0.42806       -2.63785
C          6.21230        0.47968       -2.73417
C          6.75104        0.75545       -4.15069
C          8.28763        0.80281       -4.23963
C          8.83794        1.04362       -5.65831
C         10.37574        1.08029       -5.73408
C         10.94398        1.27658       -7.15240
C         12.48299        1.29740       -7.20986
C         13.07059        1.44873       -8.62542
C         14.61047        1.45426       -8.66595
C         15.21060        1.57160      -10.07932
C         16.74868        1.56405      -10.10555
C         17.33628        1.66336      -11.52835
C         18.85442        1.65022      -11.56943
O         19.33456        0.49219      -11.02619
O         19.55815        2.53443      -12.02141
C         20.75981        0.33497      -10.96386
H          0.21197       -0.53660        1.40254
H          0.13308       -1.07358       -0.30330
H          0.09344        0.67239        0.08802
H          2.50959       -1.21675        0.62289
H          2.47041        0.51583        1.00143
H          2.18233        1.04613       -1.46327
H          2.22017       -0.68809       -1.83970
H          4.56863       -0.84056       -0.87167
H          4.53000        0.89770       -0.51603
H          4.25303        1.39697       -2.99093
H          4.28964       -0.34177       -3.34582
H          6.63617       -0.48281       -2.36417
H          6.59660        1.26076       -2.03714
H          6.32985        1.71830       -4.52249
H          6.36699       -0.02660       -4.84672
H          8.70686       -0.15225       -3.84566
H          8.66947        1.59780       -3.55713
H          8.42412        1.99881       -6.05716
H          8.45663        0.24607       -6.33809
H         10.78394        0.13340       -5.30939
H         10.75600        1.89064       -5.06901
H         10.54384        2.22348       -7.58414
H         10.56441        0.46293       -7.81382
H         12.87586        0.35868       -6.75317
H         12.86261        2.12235       -6.56268
H         12.68622        2.38784       -9.08796
H         12.69145        0.62161       -9.27009
H         14.99148        0.52261       -8.18561
H         14.99048        2.29077       -8.03426
H         14.83798        2.50466      -10.56305
H         14.83202        0.73512      -10.71198
H         17.13037        0.63568       -9.62757
H         17.13565        2.40940       -9.49269
H         17.01520        2.59570      -12.03419
H         16.97426        0.80656      -12.13976
H         21.25781        1.23136      -11.38214
H         21.04125       -0.56723      -11.54417
H         21.05058        0.18958       -9.90365
