19
METHYL_SEC-BUTYL_KETONE.gamout	Energy:    -310.8553805
C          0.25633       -0.33208        0.26935
C          0.44408       -1.60851       -0.58647
C          1.33559        0.73688        0.01230
C          2.76608        0.30163        0.35389
C         -1.15379        0.23017        0.01889
O         -1.33608        1.26505       -0.60586
C         -2.33755       -0.56223        0.57535
H          0.29056       -0.64258        1.34223
H          1.42136       -2.08671       -0.37385
H         -0.34281       -2.36482       -0.38748
H          0.41281       -1.36111       -1.66884
H          1.26671        1.05443       -1.05075
H          1.07143        1.64133        0.60166
H          2.85636       -0.01069        1.41699
H          3.11063       -0.54717       -0.27314
H          3.48148        1.13449        0.19238
H         -2.05902       -1.53528        1.02442
H         -2.83151        0.05732        1.35406
H         -3.08824       -0.71655       -0.22619
