21
METHYL_P-TOLUATE.gamout	Energy:    -499.0806194
O         -2.48273       -0.84545        0.02904
O         -2.35464        1.41952       -0.07792
C          2.51326       -0.13519        0.00049
C         -0.31822        0.12879       -0.01444
C          1.90227        1.13740       -0.06067
C          1.67469       -1.27390        0.05453
C          0.50725        1.27109       -0.06806
C          0.27963       -1.15035        0.04728
C          4.01681       -0.28705        0.00810
C         -1.79898        0.33293       -0.02596
C         -3.91223       -0.72561        0.02098
H          2.53523        2.03899       -0.10326
H          2.12883       -2.27776        0.10254
H          0.02781        2.26084       -0.11556
H         -0.36180       -2.04267        0.08926
H          4.36474       -0.89347       -0.85550
H          4.52805        0.69477       -0.03963
H          4.36516       -0.80677        0.92634
H         -4.30546       -1.75746        0.07069
H         -4.26270       -0.22287       -0.90407
H         -4.26480       -0.13465        0.89131
