8
METHYL_FORMATE.gamout	Energy:    -228.8961338
C          0.03629        0.31189       -4.60736
O         -1.14862        0.26456       -4.85347
O          0.95002       -0.62703       -4.93706
H          0.56139        1.14223       -4.06826
C          0.43419       -1.77342       -5.64215
H         -0.32261       -2.30467       -5.03003
H         -0.03667       -1.46830       -6.59854
H          1.30290       -2.42861       -5.83221
