15
METHYLCYCLOBUTANE.gamout	Energy:    -196.3775183
C          0.97201        0.96633        1.75201
C          1.99480        1.92253        1.14835
C          3.44674        1.95714        1.72121
C          1.89339        3.44915        1.45711
C          3.44557        3.50173        1.53685
H         -0.04394        1.13824        1.33510
H          0.90680        1.09418        2.85469
H          1.23710       -0.09466        1.55352
H          2.04001        1.77411        0.04535
H          4.22863        1.36675        1.19850
H          3.45726        1.67506        2.79665
H          1.42616        3.62255        2.45101
H          1.38422        4.09936        0.71470
H          3.89722        3.80092        0.56761
H          3.90246        4.11901        2.33787
