18
METHYL_TERT-BUTYL_SULFIDE.gamout	Energy:    -595.7152929
S          1.83733        2.58504        1.99904
C          1.07721        1.13141        2.79574
C          3.65005        2.11968        1.86367
C          4.25931        1.89790        3.25781
C          3.82441        0.87670        0.97533
C          4.28779        3.35126        1.19191
H         -0.00134        1.37199        2.88436
H          1.17318        0.21054        2.18397
H          1.47338        0.94589        3.81545
H          3.80053        1.03201        3.77896
H          5.34843        1.68743        3.17183
H          4.12898        2.79416        3.89761
H          3.38096        1.03789       -0.02820
H          4.90477        0.64407        0.84618
H          3.34907       -0.02102        1.42239
H          5.37806        3.18634        1.05527
H          3.84198        3.54193        0.19361
H          4.15332        4.26291        1.81042
