22
METHYL_AMYL_KETONE.gamout	Energy:    -350.1353643
O         -2.97311        2.70080       -0.00000
C          1.19637        0.03419        0.00000
C         -0.34103        0.01626        0.00000
C          1.83578       -1.36306       -0.00000
C         -0.95677        1.42073        0.00000
C          3.36936       -1.33642       -0.00000
C         -2.48639        1.57916        0.00000
C         -3.39911        0.35228        0.00000
H          1.55591        0.60525        0.88747
H          1.55592        0.60526       -0.88746
H         -0.69539       -0.55334       -0.88921
H         -0.69539       -0.55334        0.88921
H          1.47291       -1.93092       -0.88721
H          1.47291       -1.93093        0.88721
H         -0.59941        2.00552       -0.87854
H         -0.59941        2.00552        0.87854
H          3.79670       -2.36061       -0.00000
H          3.76537       -0.80975       -0.89480
H          3.76537       -0.80975        0.89480
H         -4.06373        0.41189       -0.88719
H         -4.06374        0.41189        0.88719
H         -2.87797       -0.62265        0.00000
