41
METHYL_DODECANOATE.gamout	Energy:    -661.0175104
C          1.45742       -0.28996        0.08162
C          2.96316       -0.03819        0.23676
C          3.36568        1.43977        0.10245
C          4.87672        1.68740        0.25979
C          5.30900        3.15937        0.13381
C          6.82536        3.37077        0.30207
C          7.29763        4.83187        0.19067
C          8.81760        4.99940        0.37511
C          9.32926        6.44863        0.28015
C         10.84956        6.57445        0.47952
C         11.36925        8.02482        0.39184
C         12.86797        8.15548        0.60354
O         13.55746        7.44410       -0.33281
O         13.41348        8.79991        1.48075
C         14.98570        7.49674       -0.20896
H          1.21364       -1.36714        0.18558
H          1.09056        0.04198       -0.91329
H          0.87167        0.26050        0.84904
H          3.52001       -0.63733       -0.51986
H          3.30398       -0.41928        1.22662
H          2.81041        2.04015        0.86075
H          3.02720        1.82404       -0.88809
H          5.42692        1.08055       -0.49703
H          5.20735        1.29553        1.25012
H          4.76421        3.76821        0.89267
H          4.98542        3.55687       -0.85645
H          7.36656        2.75527       -0.45425
H          7.13893        2.96446        1.29242
H          6.76336        5.44979        0.94957
H          6.99481        5.24618       -0.79949
H          9.35014        4.37618       -0.38069
H          9.10976        4.57746        1.36558
H          8.80424        7.07536        1.03794
H          9.05040        6.87882       -0.71035
H         11.38368        5.95855       -0.27632
H         11.12715        6.15217        1.47231
H         10.88583        8.67181        1.15065
H         11.12999        8.44661       -0.61035
H         15.35199        8.54075       -0.29065
H         15.38888        6.88112       -1.03368
H         15.31509        7.09228        0.77040
