15
METHYL_PROPYL_ETHER.gamout	Energy:    -233.4729045
C          1.20390        2.12132        2.13004
C          0.62644        2.85597        3.34640
C          2.10647        0.94383        2.52855
O          2.58707        0.17601        1.43665
C          3.67745        0.75166        0.75258
H          1.77139        2.83936        1.49747
H          0.38213        1.72621        1.49284
H         -0.03284        3.69369        3.04007
H          1.42840        3.28345        3.98644
H          0.02444        2.17405        3.98487
H          1.52564        0.23782        3.16320
H          2.95971        1.31161        3.15735
H          4.00400        0.02803       -0.02169
H          4.54305        0.95043        1.43397
H          3.42394        1.71097        0.23758
