18
METHYL_FUMARATE.gamout	Energy:    -533.9587345
C          2.55120        1.47306       -0.00010
C          1.38935        0.53981       -0.00010
O          0.22256        1.23944       -0.00010
O          1.45194       -0.67896       -0.00010
C          3.81890        1.00604       -0.00010
C         -0.97278        0.44359       -0.00009
C          4.98075        1.93929       -0.00010
O          6.14754        1.23965       -0.00010
O          4.91817        3.15806       -0.00010
C          7.34288        2.03551       -0.00009
H          2.35582        2.55782       -0.00010
H          4.01428       -0.07872       -0.00010
H         -1.81481        1.15933        0.00005
H         -1.01567       -0.20436       -0.89960
H         -1.01553       -0.20455        0.89929
H          8.18491        1.31976        0.00003
H          7.38576        2.68347       -0.89959
H          7.38565        2.68362        0.89930
