5
METHANE.gamout	Energy:     -40.4817958
C          1.05820        0.93531        0.81030
H          1.42108        1.57788       -0.01492
H          1.20922        1.45464        1.77626
H         -0.01949        0.72553        0.66845
H          1.62228       -0.01739        0.81140
