53
METHYL_LINOLENATE.gamout	Energy:    -893.0201610
O          4.06740       -0.88937        1.43354
O          5.07623       -1.25038       -0.56673
C         -0.96675       -1.79618       -0.27457
C         -2.30936       -1.34522       -0.87605
C          0.23105       -0.92293       -0.68970
C         -3.51015       -2.21267       -0.46273
C          1.57070       -1.37130       -0.08247
C         -4.85142       -1.74885       -1.05612
C          2.75926       -0.48414       -0.50866
C         -6.03483       -2.59846       -0.64968
C          4.09433       -0.91717        0.07114
C         -7.31507       -2.37933       -1.02195
C         -7.78279       -1.24101       -1.90032
C         -9.27090       -1.20398       -2.16314
C         -9.90493       -0.26513       -2.89979
C         -9.23077        0.90550       -3.58086
C          5.28466       -1.28875        2.07809
C        -10.16850        1.83001       -4.33855
C         -9.80146        2.93737       -5.01676
C        -10.73252        3.85236       -5.77047
C        -10.40069        3.95720       -7.27118
H         -1.04593       -1.80297        0.83739
H         -0.76875       -2.85381       -0.56683
H         -2.23004       -1.33602       -1.98823
H         -2.50625       -0.28756       -0.58206
H          0.31410       -0.91694       -1.80136
H          0.03252        0.13501       -0.39817
H         -3.59124       -2.22605        0.64882
H         -3.32426       -3.27040       -0.76135
H          1.50385       -1.37012        1.02720
H          1.77984       -2.42421       -0.37895
H         -4.77557       -1.72045       -2.17037
H         -5.03758       -0.68683       -0.76315
H          2.57122        0.56453       -0.18609
H          2.88079       -0.47882       -1.61009
H         -5.82709       -3.46197        0.00720
H         -8.09004       -3.07572       -0.65437
H         -7.22970       -1.26510       -2.87357
H         -7.46071       -0.26738       -1.45108
H         -9.87836       -2.00677       -1.70880
H        -11.00042       -0.34684       -3.01440
H         -8.65944        1.49367       -2.82153
H         -8.44031        0.52525       -4.27290
H          6.12492       -0.62549        1.78592
H          5.09656       -1.21310        3.16475
H          5.55701       -2.32938        1.80604
H        -11.24328        1.56156       -4.32019
H         -8.72731        3.21295       -5.04133
H        -10.68306        4.87358       -5.32445
H        -11.78160        3.50794       -5.63660
H        -10.47143        2.96753       -7.76857
H         -9.36991        4.33891       -7.43165
H        -11.09681        4.64988       -7.78723
