29
METHYL_OCTANOATE.gamout	Energy:    -503.8863991
C          5.13647        1.07372       -0.63235
O          4.13444        1.91860       -1.22174
C          3.08728        1.30718       -1.84952
C          2.11076        2.32820       -2.40619
O          2.95078        0.09990       -1.93420
C          0.69910        2.15375       -1.81409
C         -0.32616        3.13960       -2.39143
C         -1.73685        2.97764       -1.80605
C         -2.76517        3.96303       -2.38140
C         -4.17683        3.81148       -1.79444
C         -5.19375        4.80212       -2.37525
H          4.88235        0.00767       -0.79393
H          5.18773        1.29668        0.45269
H          6.11409        1.31186       -1.09823
H          2.07071        2.16577       -3.50627
H          2.50117        3.35146       -2.23271
H          0.74972        2.27419       -0.70806
H          0.36731        1.10774       -1.99347
H         -0.36832        3.01941       -3.49909
H          0.02760        4.18265       -2.21858
H         -1.69029        3.09908       -0.69872
H         -2.09090        1.93435       -1.97596
H         -2.81215        3.84143       -3.48896
H         -2.40676        5.00567       -2.21295
H         -4.12670        3.93356       -0.68807
H         -4.53437        2.76949       -1.96178
H         -4.88459        5.85359       -2.19108
H         -6.20081        4.66749       -1.92892
H         -5.29631        4.67869       -3.47492
