23
METHYL_HEXANOATE.gamout	Energy:    -425.3215315
C          1.31599        0.16706        0.18800
C          2.84807        0.23507        0.20880
C          3.43441        0.55541        1.59316
C          4.96711        0.64132        1.60050
C          5.56281        0.94733        2.98258
C          7.05787        1.21958        2.92589
O          7.68702        0.71443        4.02652
O          7.62395        1.81980        2.03016
C          9.09961        0.95249        4.14726
H          0.93040       -0.07317       -0.82450
H          0.86250        1.13315        0.49735
H          0.93535       -0.61237        0.88277
H          3.20083        0.99970       -0.52007
H          3.27062       -0.73192       -0.14745
H          3.09677       -0.21861        2.32120
H          3.00639        1.51712        1.96060
H          5.31418        1.42210        0.88963
H          5.39317       -0.31665        1.22589
H          5.36768        0.13732        3.71504
H          5.09029        1.86652        3.40022
H          9.48594        1.43921        3.23030
H          9.59962       -0.02282        4.31078
H          9.27689        1.60266        5.02852
