21
METHYL_DIETHANOLAMINE.gamout	Energy:    -403.2122799
C         16.91453       29.98930       -0.18210
C         15.69758       30.86111        0.13875
N         18.15598       30.75896       -0.24335
O         14.55941       30.01150        0.17669
C         19.32966       29.96185        0.09134
C         18.32657       31.50771       -1.48912
C         19.08434       32.82263       -1.29073
O         19.19227       33.44941       -2.56186
H         17.00565       29.23450        0.62719
H         16.70723       29.41179       -1.12284
H         15.59088       31.66358       -0.63437
H         15.88389       31.37813        1.11300
H         13.78431       30.56436        0.38118
H         20.23875       30.59770        0.09980
H         19.22104       29.52539        1.10602
H         19.51706       29.11968       -0.62975
H         17.33008       31.76338       -1.90610
H         18.84686       30.90559       -2.28139
H         20.08974       32.62295       -0.84051
H         18.52197       33.44538       -0.55100
H         19.66814       34.29008       -2.43875
