21
METHYL_AMYL_ETHER.gamout	Energy:    -312.0406629
C         34.95304       -0.01247       -0.00004
C         36.32535        0.67505        0.00017
C         37.49862       -0.30159        0.00003
C         33.77437        0.97541        0.00010
O         38.70927        0.43324        0.00017
C         32.40014        0.29575       -0.00017
C         39.85479       -0.38435        0.00005
H         34.86860       -0.68053       -0.88849
H         34.86850       -0.68089        0.88814
H         36.42358        1.33614        0.88967
H         36.42368        1.33650       -0.88905
H         37.44555       -0.97274       -0.89783
H         37.44552       -0.97304        0.89768
H         33.86270        1.64259        0.88735
H         33.86283        1.64297       -0.88687
H         31.57614        1.03940       -0.00007
H         32.26542       -0.34968       -0.89462
H         32.26527       -0.35010        0.89396
H         40.74440        0.27737        0.00019
H         39.90663       -1.04551        0.90232
H         39.90667       -1.04521       -0.90244
