6
METHANOL.gamout	Energy:    -115.6295005
H          0.20778        0.82150        1.61221
C          0.67093        0.97804        0.60605
H         -0.05520        1.55497       -0.00302
H          0.78122       -0.02599        0.12510
O          1.87435        1.72119        0.64678
H          2.51122        1.21258        1.18105
