27
METHYLCYCLOOCTANE.gamout	Energy:    -353.5288067
C          3.91575        4.29977        2.45258
C          4.69287        3.96744        1.16715
C          4.86267        2.47500        0.80027
C          2.42477        3.92821        2.50739
C          2.03715        2.42840        2.44242
C          2.92975        1.51003        3.32549
C          0.54836        2.27586        2.80610
C          4.05196        0.73930        2.59889
C          5.22172        1.52485        1.96957
H          4.43858        3.84697        3.32456
H          3.99325        5.39751        2.61789
H          4.22711        4.49964        0.30651
H          5.70787        4.41354        1.27512
H          3.94923        2.09712        0.29007
H          5.66083        2.41714        0.02813
H          2.01598        4.33441        3.46226
H          1.87898        4.46968        1.70060
H          2.14257        2.08300        1.38915
H          3.35734        2.09424        4.17292
H          2.27892        0.74641        3.80628
H          0.19492        1.23297        2.66011
H          0.36750        2.54302        3.87093
H         -0.09389        2.93730        2.18595
H          4.48350        0.00845        3.31896
H          3.58284        0.11950        1.79828
H          5.76589        2.08973        2.76156
H          5.95270        0.77134        1.60317
