16
MMIM+1.gamout	Energy:    -305.0060342
C          2.49165        0.55893        0.03902
N          1.09691        0.09549        0.00331
C          0.00126        0.88286        0.01715
N         -1.09685        0.09938       -0.00888
C         -0.69065       -1.22720       -0.04047
C          0.68626       -1.22951       -0.03196
C         -2.49028        0.56788       -0.01261
H          2.95944        0.27063        1.00059
H          3.05228        0.10369       -0.79937
H          2.51419        1.65870       -0.06454
H          0.00266        1.97891        0.04484
H         -1.40563       -2.05679       -0.06744
H          1.39884       -2.06143       -0.04780
H         -2.97952        0.28574       -0.96495
H         -3.03539        0.11236        0.83621
H         -2.50516        1.66725        0.09439
