28
MOEMPYR+1.gamout	Energy:    -445.0689643
C         -1.91905       -1.18249       -2.39898
O         -0.53436       -1.30437       -2.08652
H         -2.36644       -0.27206       -1.93467
H         -2.49700       -2.07565       -2.06214
H         -1.99597       -1.10227       -3.49942
C         -0.27044       -1.41519       -0.71620
C          1.24889       -1.62729       -0.64375
H         -0.82178       -2.27587       -0.25737
H         -0.58079       -0.49556       -0.15377
N          1.86136       -1.59296        0.74510
H          1.74249       -0.83179       -1.23754
H          1.50843       -2.60324       -1.10020
C          1.31751       -2.71372        1.59315
H          0.21941       -2.62327        1.67038
H          1.76774       -2.65411        2.60111
H          1.58072       -3.67948        1.12208
C          1.63217       -0.22308        1.43240
C          2.97989        0.15848        2.04104
H          0.79520       -0.31619        2.14883
H          1.34215        0.48943        0.63709
C          3.97120       -0.35014        0.98451
H          3.13821       -0.34536        3.01783
H          3.04353        1.24932        2.21965
C          3.40785       -1.72585        0.62918
H          5.01281       -0.42581        1.35236
H          3.97869        0.31784        0.09795
H          3.71919       -2.49345        1.36327
H          3.65428       -2.08997       -0.38528
