15
MORPHOLINE.gamout	Energy:    -287.5802888
C         -5.17922        1.94698        1.66741
C         -5.44223        2.45289        0.24480
N         -3.95794        1.14018        1.65832
O         -5.54625        1.37182       -0.67737
C         -4.36238        0.57972       -0.67395
C         -4.07132        0.02043        0.72271
H         -5.04633        2.81245        2.35253
H         -6.08649        1.37733        2.00798
H         -4.61121        3.14047       -0.05592
H         -6.39999        3.01058        0.19095
H         -3.73612        0.80497        2.60288
H         -4.52561       -0.23971       -1.40455
H         -3.48590        1.18961       -1.01004
H         -4.89238       -0.69976        0.98960
H         -3.11665       -0.54904        0.70448
