15
N,N-DIMETHYLACETAMIDE.gamout	Energy:    -287.6152860
C         -1.93146       -0.30197       -0.01993
C         -0.57586        0.40453       -0.00960
N          0.58884       -0.35309        0.01347
O         -0.54320        1.63719       -0.01027
C          1.86514        0.35179        0.00325
C          0.68940       -1.80182        0.02750
H         -1.93435       -1.39753       -0.16257
H         -2.53334        0.16355       -0.82498
H         -2.44559       -0.06735        0.93474
H          1.65568        1.43694       -0.00720
H          2.46066        0.07688       -0.89622
H          2.46370        0.09525        0.90580
H         -0.30136       -2.27981        0.10684
H          1.30096       -2.14406        0.89351
H          1.18320       -2.18330       -0.89692
