20
N,N-DIMETHYLANILINE.gamout	Energy:    -365.9459441
C          6.61210        4.17908       -1.34830
N          7.16000        2.92433       -0.86521
C          8.59408        2.71256       -0.94924
C          6.31251        1.84516       -0.62568
C          6.82756        0.55418       -0.30691
C          4.89450        1.98511       -0.68894
C          5.96659       -0.51711       -0.02901
C          4.57037       -0.36008       -0.07094
C          4.05007        0.90153       -0.40773
H          7.41420        4.94138       -1.37572
H          6.17174        4.10417       -2.37323
H          5.81763        4.56076       -0.67054
H          9.10185        3.69171       -1.03940
H          8.98526        2.22093       -0.03170
H          8.89736        2.08335       -1.82217
H          7.91216        0.38380       -0.26735
H          4.44322        2.95122       -0.95292
H          6.40325       -1.49829        0.21952
H          3.90116       -1.20708        0.14415
H          2.95922        1.05093       -0.46156
