23
N-BUTYL_PROPIONATE.gamout	Energy:    -425.3272213
O          2.46944       -0.13421       -2.49952
C          2.00851        0.28862       -1.29190
C          1.11296        1.50942       -1.44862
O          2.28855       -0.25563       -0.23869
C          3.31195       -1.30935       -2.48179
C          0.56053        2.02189       -0.11865
C          3.72514       -1.61936       -3.91492
C          4.61608       -2.86663       -4.02135
C          5.03634       -3.19070       -5.46046
H          1.70406        2.28834       -1.97985
H          0.30014        1.23923       -2.15825
H          4.18926       -1.12028       -1.82445
H          2.74751       -2.15191       -2.02380
H         -0.08366        2.91041       -0.27512
H         -0.04073        1.24144        0.38974
H          1.38071        2.30008        0.57263
H          2.80722       -1.75291       -4.52973
H          4.25317       -0.73524       -4.33717
H          5.52353       -2.72859       -3.39052
H          4.07936       -3.73973       -3.58511
H          5.67554       -4.09639       -5.50426
H          4.15298       -3.37306       -6.10920
H          5.61055       -2.35372       -5.91217
