14
N-BUTYRIC_ACID.gamout	Energy:    -307.4789062
C          1.96993        0.93559        0.78275
C          2.97717       -0.01126        1.43944
C          0.64014        1.03221        1.53752
O          4.17887       -0.11770        0.79381
O          2.77577       -0.64204        2.45297
C         -0.36253        1.98178        0.87291
H          2.44678        1.94037        0.69258
H          1.80536        0.59264       -0.26624
H          0.21044        0.01170        1.62718
H          0.84979        1.35462        2.57975
H          4.17302        0.45428        0.00023
H         -0.61423        1.65628       -0.15959
H         -1.31151        2.02895        1.44512
H          0.03553        3.01719        0.80461
