16
N-BUTYLAMINE.gamout	Energy:    -213.6330240
C          2.04836        1.68215        1.50679
C          3.46681        1.26908        1.92464
C          4.57470        1.86396        1.04646
C          0.95011        1.08960        2.39854
N          5.89480        1.39030        1.47499
H          1.97223        2.79363        1.51141
H          1.87314        1.37589        0.44978
H          3.64259        1.57715        2.98319
H          3.56838        0.16094        1.91318
H          4.41722        1.53242       -0.00519
H          4.45828        2.98156        1.03169
H          1.07406        1.40637        3.45662
H         -0.06156        1.40828        2.07172
H          0.97182       -0.02110        2.38404
H          6.62356        1.77585        0.85890
H          6.10607        1.76489        2.41178
