12
N-BUTYRONITRILE.gamout	Energy:    -211.2171263
C          0.24227        1.61977        1.88837
C          1.78227        1.75755        1.79551
C          2.23271        2.48785        0.60463
C         -0.36651        0.76119        0.77467
N          2.56533        3.07470       -0.35423
H          0.00690        1.18444        2.88343
H         -0.20661        2.63629        1.87913
H          2.18128        2.27862        2.69284
H          2.25652        0.75081        1.78163
H          0.03883       -0.27269        0.79348
H         -1.46822        0.69290        0.88185
H         -0.15196        1.18856       -0.22724
