18
N-CAPRONITRILE.gamout	Energy:    -289.7826151
C         -0.04560       -0.07464        0.00011
C          1.26104        0.72807       -0.00010
C          1.04506        2.24967        0.00008
C          2.35376        3.05385       -0.00010
C          2.10642        4.57988        0.00015
C          3.33814        5.37603        0.00010
N          4.33251        5.99698       -0.00012
H          0.14689       -1.16726        0.00001
H         -0.66366        0.15408        0.89464
H         -0.66402        0.15418       -0.89414
H          1.87184        0.44658       -0.88747
H          1.87220        0.44643        0.88697
H          0.43655        2.53689        0.88847
H          0.43619        2.53705       -0.88801
H          2.96467        2.78478       -0.88902
H          2.96506        2.78456        0.88848
H          1.50547        4.87384        0.88929
H          1.50523        4.87412       -0.88873
