32
N-CAPRIC_ACID.gamout	Energy:    -543.1804190
C          4.11001        2.15867        1.28918
C          5.22479        1.13033        1.01894
C          3.25705        1.87633        2.53686
C          6.30201        0.98519        2.10979
C          2.06346        2.84783        2.67284
C          7.13390        2.24962        2.38863
C          1.22896        2.61692        3.91913
C          8.29790        2.01554        3.36694
O          0.62967        1.39029        3.90225
O          1.09133        3.39380        4.84648
C          9.13873        3.26723        3.67117
C         10.30786        3.00147        4.62735
H          3.44199        2.18754        0.39934
H          4.54577        3.18086        1.36569
H          4.75984        0.13314        0.85098
H          5.71799        1.39855        0.05792
H          3.88429        1.94495        3.45270
H          2.86992        0.83432        2.50116
H          6.99189        0.16707        1.80362
H          5.83694        0.63443        3.05979
H          2.40837        3.90018        2.70450
H          1.39781        2.72961        1.78938
H          6.47923        3.05603        2.79090
H          7.53691        2.64223        1.42553
H          8.96422        1.22054        2.95777
H          7.89663        1.60319        4.32237
H          0.13973        1.33350        4.75300
H          9.52955        3.68615        2.71537
H          8.48069        4.05838        4.09764
H         11.00813        2.24512        4.21213
H          9.95225        2.61609        5.60719
H         10.89170        3.92347        4.82469
