32
N-DECANE.gamout	Energy:    -394.0253941
C          5.25712        1.27777        1.07239
C          6.31969        1.88906        2.00251
C          7.72192        1.27507        1.85168
C          3.86175        1.91044        1.21088
C          8.77330        1.86239        2.80827
C          2.78631        1.27753        0.31166
C         10.18098        1.26836        2.63959
C          1.40069        1.93281        0.43343
C         11.21544        1.84548        3.61346
C          0.33020        1.28452       -0.45263
H          5.18459        0.18255        1.27042
H          5.60013        1.36514        0.01486
H          5.98331        1.78153        3.06037
H          6.37766        2.98800        1.82103
H          8.07077        1.40276        0.80006
H          7.65916        0.17282        2.01048
H          3.92798        3.00150        0.98912
H          3.53351        1.84452        2.27469
H          8.43548        1.71232        3.86068
H          8.82344        2.96793        2.66823
H          3.12137        1.32118       -0.75126
H          2.69919        0.19156        0.55072
H         10.52417        1.43161        1.59196
H         10.12837        0.16224        2.76491
H          1.07466        1.89897        1.49844
H          1.48512        3.01549        0.18361
H         12.21908        1.40016        3.45488
H         11.31737        2.94597        3.49499
H         10.93051        1.65529        4.67082
H          0.18123        0.21367       -0.19519
H         -0.65057        1.79191       -0.34591
H          0.61106        1.32687       -1.52722
