33
N-DECYL_MERCAPTAN.gamout	Energy:    -792.1293184
C        103.99862       10.03570        0.00036
C        102.70031        9.20816        0.00008
C        102.92417        7.68535        0.00037
C        103.77231       11.55786       -0.00004
C        101.62469        6.86065        0.00003
C        105.06637       12.39075        0.00011
C        101.85574        5.33861        0.00019
C        104.83267       13.91022       -0.00028
C        100.55051        4.53431       -0.00018
C        106.12484       14.73598       -0.00017
S        100.93700        2.72600        0.00002
H        104.61195        9.75446        0.88799
H        104.61253        9.75410       -0.88675
H        102.08734        9.48976       -0.88773
H        102.08673        9.49006        0.88737
H        103.53630        7.40276        0.88811
H        103.53685        7.40252       -0.88693
H        103.15827       11.83766       -0.88778
H        103.15781       11.83816        0.88723
H        101.01216        7.13913       -0.88860
H        101.01151        7.13917        0.88820
H        105.68205       12.11423        0.88786
H        105.68256       12.11390       -0.88718
H        102.45980        5.04981        0.89004
H        102.46033        5.04967       -0.88926
H        104.21727       14.18574       -0.88738
H        104.21685       14.18619        0.88639
H         99.94481        4.77806       -0.89880
H         99.94420        4.77807        0.89802
H        105.91213       15.82490       -0.00048
H        106.74877       14.52048        0.89421
H        106.74923       14.52009       -0.89412
H         99.64359        2.29427       -0.00045
