34
N-DECYLAMINE.gamout	Energy:    -449.3296215
C         69.99132       10.03710        0.00986
C         71.28656        9.20504        0.01161
C         71.06140        7.68244        0.01779
C         70.22354       11.55838        0.00243
C         72.36020        6.85635        0.01641
C         68.93375       12.39745       -0.00222
C         72.14234        5.33554        0.01603
C         69.17513       13.91581       -0.01044
C         73.44671        4.52557        0.01923
C         67.88716       14.74855       -0.01702
N         73.17201        3.08672       -0.03684
H         69.37573        9.75407       -0.87554
H         69.37721        9.76241        0.89898
H         71.90277        9.48921        0.89636
H         71.89907        9.48171       -0.87803
H         70.44592        7.39719       -0.86674
H         70.45013        7.40402        0.90766
H         70.83973       11.84010        0.88799
H         70.83903       11.83112       -0.88646
H         72.97639        7.14092        0.90096
H         72.96995        7.13633       -0.87383
H         68.31699       12.11920       -0.88856
H         68.31560       12.12906        0.88627
H         71.54492        5.02570       -0.87002
H         71.53552        5.04600        0.90653
H         69.79155       14.19335        0.87521
H         69.79327       14.18323       -0.89806
H         74.06893        4.85343        0.89572
H         74.03750        4.79763       -0.88493
H         68.10589       15.83626       -0.02311
H         67.26411       14.53033       -0.91122
H         67.26087       14.54120        0.87758
H         74.05723        2.56277       -0.06659
H         72.71229        2.79139        0.83704
