68
N-DOCOSANE.gamout	Energy:    -865.4167601
C         12.20585        2.91151        6.87138
C         11.18214        2.82590        8.01836
C          9.82466        2.21387        7.63210
C         13.53576        3.56360        7.28926
C          8.83934        2.12756        8.81101
C         14.59918        3.65729        6.17976
C          7.47041        1.49482        8.49240
C         15.89095        4.35156        6.64501
C          6.56893        2.32611        7.56220
C         16.98456        4.54165        5.57602
C          5.17657        1.71343        7.32295
C         17.65042        3.25031        5.06932
C          4.26086        2.56038        6.41867
C         18.79994        3.49492        4.07338
C          2.86478        1.95505        6.17999
C         19.49427        2.21475        3.57105
C          1.94747        2.81389        5.29080
C         20.64932        2.46469        2.58385
C          0.55278        2.21131        5.05330
C         21.34763        1.18557        2.09298
C         -0.35191        3.08104        4.17142
C         22.49981        1.44850        1.11526
H         11.76566        3.48796        6.02464
H         12.39615        1.88880        6.46997
H         11.01154        3.84933        8.42748
H         11.62678        2.24338        8.85891
H          9.97688        1.19326        7.20967
H          9.37990        2.81746        6.80871
H         13.96212        3.00478        8.15486
H         13.32655        4.58916        7.67471
H          9.31919        1.54839        9.63142
H          8.67618        3.14945        9.22726
H         14.82540        2.63424        5.80155
H         14.17947        4.21364        5.30922
H          7.62063        0.47881        8.05814
H          6.93250        1.33253        9.45313
H         16.31787        3.79051        7.50927
H         15.62462        5.35462        7.04720
H          6.44893        3.34511        7.99924
H          7.07260        2.47924        6.58062
H         16.56584        5.10467        4.70940
H         17.77031        5.20197        6.00697
H          5.29308        0.69536        6.88340
H          4.67116        1.55859        8.30497
H         16.88850        2.59093        4.59494
H         18.04114        2.67913        5.94383
H          4.14504        3.57454        6.86761
H          4.76208        2.72554        5.43643
H         18.41613        4.06968        3.19838
H         19.55910        4.15636        4.55275
H          2.97573        0.94269        5.72604
H          2.36499        1.78845        7.16280
H         18.73873        1.54943        3.09186
H         19.88202        1.64360        4.44677
H          2.44355        2.98712        4.30715
H          1.83390        3.82413        5.74926
H         20.26932        3.03333        1.70306
H         21.40396        3.13003        3.06483
H          0.66272        1.20252        4.59338
H          0.05622        2.03890        6.03570
H         20.59590        0.51865        1.61207
H         21.72966        0.61828        2.97247
H         -0.51861        4.08285        4.62267
H          0.09233        3.24361        3.16577
H         -1.34682        2.61365        4.02327
H         22.15008        1.97775        0.20272
H         23.29005        2.07773        1.57844
H         22.97786        0.50316        0.78756
