38
N-DODECANOIC_ACID.gamout	Energy:    -621.7410965
C         -4.64874       -0.55806       -0.01463
C         -3.39318        0.32055       -0.00661
C         -2.08497       -0.48643       -0.01171
C         -0.81229        0.37883       -0.00357
C          0.49315       -0.43510       -0.00806
C          1.77238        0.42035        0.00022
C          3.07490       -0.39913       -0.00405
C          4.35708        0.45215        0.00430
C          5.65948       -0.36639        0.00002
C          6.93806        0.48757        0.00844
C          8.23217       -0.33594        0.00388
O         -6.03716        1.44386        0.00071
O         -7.09424       -0.52376       -0.01645
C         -5.95679        0.23639       -0.00920
H         -6.84984       -1.47071       -0.02388
H         -4.65751       -1.22741       -0.90720
H         -4.65861       -1.24157        0.86718
H         -3.43155        1.00051       -0.88524
H         -3.43302        0.98644        0.88267
H         -2.06769       -1.16788        0.87116
H         -2.06597       -1.15442       -0.90476
H         -0.82604        1.05950       -0.88621
H         -0.82829        1.04576        0.88945
H          0.50325       -1.11633        0.87483
H          0.50561       -1.10323       -0.90085
H          1.76391        1.10160       -0.88246
H          1.76131        1.08806        0.89313
H          3.08182       -1.08043        0.87879
H          3.08445       -1.06729       -0.89682
H          4.35029        1.13356       -0.87839
H          4.34767        1.12007        0.89721
H          5.66946       -1.04771        0.88301
H          5.67211       -1.03439       -0.89303
H          6.92825        1.16855       -0.87347
H          6.92573        1.15487        0.90071
H          8.29682       -0.99870        0.89368
H          8.29943       -0.98479       -0.89588
H          9.12890        0.31716        0.01031
