62
N-EICOSANE.gamout	Energy:    -786.8533756
C          5.49251        2.19427        4.65819
C          4.31375        1.55161        3.90504
C          3.02982        2.40053        3.91436
C          6.79066        1.36803        4.63247
C          1.85285        1.78505        3.13613
C          7.97226        2.03590        5.35966
C          0.58210        2.65465        3.12994
C          9.28146        1.22729        5.32008
C         -0.59274        2.05953        2.33212
C         10.46579        1.91352        6.02608
C         -1.85427        2.94296        2.31403
C         11.78168        1.11580        5.97719
C         -3.02664        2.35965        1.50383
C         12.96783        1.81315        6.66910
C         -4.28276        3.24869        1.47809
C         14.28707        1.02268        6.61614
C         -5.44926        2.66795        0.66172
C         15.47010        1.72766        7.30104
C         -6.69500        3.56329        0.64142
C         16.78108        0.93267        7.24024
H          5.19715        2.38618        5.71604
H          5.69310        3.19939        4.21834
H          4.62005        1.36579        2.84907
H          4.09759        0.54612        4.33593
H          2.71931        2.58954        4.96841
H          3.25844        3.40505        3.48676
H          6.59918        0.36302        5.07580
H          7.08170        1.17801        3.57295
H          1.61213        0.78061        3.55645
H          2.17284        1.60068        2.08393
H          7.69192        2.23170        6.42091
H          8.14947        3.04018        4.90828
H          0.83281        3.65784        2.71185
H          0.25799        2.84199        4.18025
H          9.10900        0.22393        5.77471
H          9.55911        1.03154        4.25798
H         -0.85112        1.05656        2.74542
H         -0.26219        1.87492        1.28320
H         10.62788        2.91627        5.56594
H         10.19691        2.11323        7.08962
H         -2.18808        3.12941        3.36150
H         -1.59013        3.94501        1.90178
H         12.04998        0.91514        4.91363
H         11.62118        0.11420        6.44003
H         -2.68959        2.17475        0.45702
H         -3.29505        1.35759        1.91300
H         12.70583        2.01612        7.73379
H         13.12216        2.81448        6.20332
H         -4.62512        3.43448        2.52310
H         -4.01462        4.25077        1.06827
H         14.55280        0.81891        5.55239
H         14.13593        0.02202        7.08455
H         -5.71932        1.66663        1.06923
H         -5.10763        2.48349       -0.38274
H         15.61923        2.72744        6.83238
H         15.20944        1.93198        8.36489
H         -6.47362        4.56003        0.20237
H         -7.51129        3.10985        0.04285
H         -7.08933        3.73505        1.66626
H         16.67835       -0.05622        7.73661
H         17.60834        1.47402        7.74331
H         17.09590        0.74470        6.19117
