26
N-HEXYL_ACETATE.gamout	Energy:    -464.6089625
C         -1.17768        5.51587       -1.17071
C          0.34819        5.47650       -1.32111
C          1.05325        4.65611       -0.22940
C          2.58168        4.61101       -0.37537
C          3.28180        3.78636        0.71581
C          4.79537        3.75978        0.54643
C          7.18059        1.97444        2.76249
C          6.71511        2.84132        1.61006
O          5.35864        2.96069        1.61171
O          7.43285        3.37110        0.78189
H         -1.61343        4.49461       -1.20983
H         -1.47745        5.96385       -0.19891
H         -1.65428        6.11385       -1.97491
H          0.75282        6.51438       -1.31577
H          0.61405        5.05849       -2.31902
H          0.65225        3.61599       -0.23405
H          0.79095        5.07214        0.77112
H          2.84203        4.19602       -1.37661
H          2.98260        5.65090       -0.36957
H          3.03842        4.19840        1.72045
H          2.89788        2.74196        0.70784
H          5.09475        3.32325       -0.43222
H          5.23462        4.78081        0.58435
H          6.72241        0.96684        2.69492
H          6.85403        2.41287        3.72765
H          8.28159        1.89162        2.73951
