23
N-HEPTANOIC_ACID.gamout	Energy:    -425.3345956
C          4.74064        1.14470        1.31117
C          3.90859        1.27184        2.60244
C          2.39454        1.27086        2.35000
C          6.22882        1.09696        1.60525
C          1.55750        1.39542        3.63218
O          6.91181        2.10763        0.99812
O          6.77642        0.27254        2.31509
C          0.03987        1.39499        3.38883
C         -0.78770        1.52593        4.67322
H          4.52338        1.96872        0.60188
H          4.48310        0.18843        0.80465
H          4.18478        0.43541        3.28104
H          4.19856        2.20653        3.13316
H          2.13422        2.10468        1.65730
H          2.11149        0.33644        1.81245
H          1.81933        0.56304        4.32611
H          1.84395        2.33025        4.16744
H          7.85153        1.98196        1.26254
H         -0.24342        0.46083        2.85247
H         -0.21614        2.22679        2.69304
H         -0.55085        2.46980        5.20932
H         -1.87729        1.52601        4.46230
H         -0.58454        0.68886        5.37540
