36
N-HEPTYLCYCLOPENTANE.gamout	Energy:    -471.3828931
C          1.82004        0.93006        0.91883
C          0.68480        1.99797        0.98522
C          2.95840        1.47545        1.81011
C          1.25974        3.16778        1.82359
C          2.79537        3.00779        1.75670
C          3.56330        3.80696        2.82316
C          5.09840        3.73636        2.72474
C          8.81044        7.57473        5.74790
C          7.96752        6.83432        4.70248
C          8.13749        5.30670        4.74799
C          7.36735        4.52788        3.66481
C          5.83425        4.59055        3.77300
H          1.48233       -0.07391        1.24742
H          2.17728        0.81065       -0.12625
H          0.40866        2.33920       -0.03470
H         -0.24466        1.59636        1.43792
H          2.82554        1.13583        2.86364
H          3.95757        1.12456        1.48211
H          0.91569        4.16107        1.46899
H          0.93764        3.07979        2.88627
H          3.13430        3.35445        0.74973
H          3.24602        4.87289        2.75656
H          3.23710        3.46106        3.83310
H          5.41226        4.05959        1.70457
H          5.43331        2.67741        2.81750
H          8.66345        8.67321        5.68849
H          8.54706        7.26087        6.78109
H          9.89598        7.37769        5.61196
H          6.89545        7.09749        4.84441
H          8.23393        7.19895        3.68367
H          9.22024        5.06661        4.65164
H          7.83696        4.93440        5.75556
H          7.68713        3.46174        3.70125
H          7.68099        4.89697        2.65981
H          5.49272        5.64720        3.68026
H          5.52596        4.26628        4.79480
