53
N-MARGARIC_ACID.gamout	Energy:    -818.1636078
C          0.55689        0.15313        0.02151
C          1.93971        0.82443        0.02273
C         -0.60947        1.15026        0.03830
C          3.12297       -0.15887        0.00578
C          4.50130        0.52441        0.00633
C          5.69682       -0.44533       -0.01381
C          7.06630        0.25660       -0.00920
C          8.27608       -0.69525       -0.03297
C          9.63484        0.02743       -0.01868
C         10.85897       -0.90574       -0.04540
C         12.20731       -0.16394       -0.01679
C         13.44337       -1.08115       -0.04600
C         14.78295       -0.32455       -0.00047
C         16.02730       -1.23024       -0.03291
C         17.35659       -0.46092        0.02905
C         18.59065       -1.36701       -0.01014
C         19.90435       -0.61071        0.06200
O         20.96915       -1.45932        0.00802
O         20.03552        0.59562        0.15808
H          0.46866       -0.50726       -0.87141
H          0.47669       -0.52571        0.90127
H          2.02429        1.48606        0.91630
H          2.01693        1.50467       -0.85747
H         -1.59018        0.63160        0.03568
H         -0.57649        1.79715        0.94131
H         -0.58355        1.81924       -0.84871
H          3.03698       -0.81995       -0.88788
H          3.04729       -0.83897        0.88606
H          4.58129        1.18512        0.90092
H          4.57272        1.20700       -0.87244
H          5.61987       -1.10410       -0.91001
H          5.63042       -1.12953        0.86406
H          7.13570        0.91358        0.88908
H          7.12925        0.94505       -0.88414
H          8.21146       -1.34893       -0.93389
H          8.21809       -1.38635        0.84014
H          9.69059        0.67794        0.88528
H          9.69039        0.72402       -0.88770
H         10.80865       -1.55189       -0.95267
H         10.80724       -1.60575        0.82104
H         12.24901        0.47781        0.89419
H         12.25805        0.54224       -0.87828
H         13.40646       -1.71769       -0.96079
H         13.39440       -1.79146        0.81226
H         14.81314        0.30666        0.91800
H         14.83211        0.39171       -0.85344
H         16.00099       -1.85611       -0.95551
H         15.97908       -1.95158        0.81629
H         17.39554        0.15959        0.95109
H         17.42154        0.26490       -0.81116
H         18.61675       -1.98862       -0.93356
H         18.59079       -2.10518        0.82380
H         21.76273       -0.88232        0.06283
