20
N-METHYLPIPERIDINE.gamout	Energy:    -290.9934285
N          1.00230       -0.00013        0.25026
C         -1.87738        0.00028       -0.24029
C         -1.12860       -1.25875        0.22524
C         -1.12826        1.25906        0.22533
C          0.33920       -1.21394       -0.22402
C          0.33953        1.21389       -0.22393
C          2.42937       -0.00031       -0.01184
H         -1.93777        0.00032       -1.35359
H         -2.92451        0.00041        0.13222
H         -1.15710       -1.31798        1.33588
H         -1.61227       -2.18003       -0.16502
H         -1.61169        2.18051       -0.16486
H         -1.15675        1.31822        1.33598
H          0.89292       -2.09172        0.17523
H          0.38215       -1.29332       -1.34947
H          0.38249        1.29334       -1.34938
H          0.89348        2.09150        0.17537
H          2.68944       -0.00030       -1.10754
H          2.90197       -0.89741        0.44175
H          2.90222        0.89661        0.44183
