42
N-NONYLCYCLOPENTANE.gamout	Energy:    -549.9461306
C          0.25758        1.05990        5.50931
C          0.72055        1.59287        6.89676
C          1.06725        1.87126        4.48062
C          1.47656        2.92240        6.61118
C          1.17817        3.26441        5.13163
C          2.12811        4.27845        4.46304
C          3.60039        3.85691        4.31329
C          6.84151        5.63413        2.88401
C          5.96360        4.54047        3.51633
C          8.34483        5.30580        2.80255
C          4.48600        4.94115        3.67448
C         10.63380        2.77451        0.81364
C         10.24204        3.91774        1.75747
C          8.72636        4.15686        1.85475
H          0.39905       -0.03462        5.40150
H         -0.82731        1.25452        5.36503
H          1.38313        0.86442        7.40815
H         -0.14402        1.75088        7.57423
H          2.08057        1.42794        4.35424
H          0.59365        1.89694        3.47726
H          1.17518        3.74141        7.29600
H          2.57006        2.78012        6.75132
H          0.15782        3.71397        5.09674
H          2.08042        5.22991        5.04091
H          1.72301        4.52707        3.45575
H          4.01959        3.59004        5.31020
H          3.66404        2.92738        3.70328
H          6.72310        6.57103        3.47390
H          6.45872        5.87536        1.86462
H          6.38058        4.27655        4.51667
H          6.02500        3.60682        2.91183
H          8.72343        5.07803        3.82670
H          8.88777        6.22400        2.48361
H          4.07125        5.21711        2.67660
H          4.42473        5.87119        4.28729
H         10.28976        2.96550       -0.22595
H         11.73409        2.63686        0.77753
H         10.18873        1.80784        1.13416
H         10.74113        4.85809        1.42806
H         10.64413        3.71026        2.77593
H          8.23283        3.21265        2.18048
H          8.32134        4.37171        0.83771
