56
N-OCTADECANE.gamout	Energy:    -708.2878732
C          8.08506        4.20621       -0.43983
C          7.04966        3.75788        0.60677
C          5.75727        3.17567        0.00651
C          9.37746        4.78833        0.16073
C          4.72166        2.72776        1.05329
C         10.41413        5.23669       -0.88532
C          3.42745        2.14753        0.45382
C         11.70843        5.81670       -0.28520
C          2.39048        1.70029        1.50017
C         12.74630        6.26422       -1.33095
C          1.09482        1.12373        0.89992
C         14.04215        6.84037       -0.73036
C          0.05652        0.67602        1.94337
C         15.08079        7.28802       -1.77353
C         -1.23657        0.10380        1.33854
C         16.37385        7.85979       -1.16839
C         -2.26397       -0.34261        2.38652
C         17.40134        8.30606       -2.21628
H          8.34140        3.34080       -1.09448
H          7.62174        4.96331       -1.11499
H          7.51292        3.00082        1.28202
H          6.79318        4.62325        1.26139
H          6.01351        2.31049       -0.64846
H          5.29451        3.93327       -0.66853
H          9.12102        5.65338        0.81579
H          9.83989        4.03053        0.83580
H          4.46658        3.59331        1.70826
H          5.18452        1.97001        1.72807
H         10.66945        4.37130       -1.54042
H          9.95181        5.99479       -1.56010
H          3.68180        1.28246       -0.20210
H          2.96567        2.90644       -0.22047
H         12.16969        5.05750        0.38913
H         11.45396        6.68169        0.37079
H          2.85171        0.94058        2.17391
H          2.13713        2.56545        2.15636
H         12.99968        5.39919       -1.98730
H         12.28547        7.02428       -2.00457
H          1.34722        0.25915        0.24259
H          0.63436        1.88464        0.22695
H         13.78989        7.70494       -0.07292
H         14.50236        6.07925       -0.05747
H         -0.19871        1.53870        2.60229
H          0.51387       -0.08760        2.61560
H         14.62374        8.05184       -2.44571
H         15.33599        6.42541       -2.43259
H         -0.98233       -0.75760        0.67913
H         -1.69445        0.86690        0.66784
H         16.11982        8.72118       -0.50889
H         16.83151        7.09646       -0.49781
H         -3.17976       -0.74858        1.91018
H         -1.85193       -1.13575        3.04700
H         -2.57323        0.50217        3.03906
H         17.71035        7.46128       -2.86894
H         16.98950        9.09941       -2.87661
H         18.31713        8.71163       -1.73976
