23
N-PENTYL_ACETATE.gamout	Energy:    -425.3261933
C         -0.77073       -1.83240        0.10690
C          0.12452       -0.60998        0.10750
O          1.43740       -0.96975        0.06403
O         -0.25009        0.54757        0.14308
C          2.38570        0.12279        0.05804
C          3.79229       -0.45987        0.01699
C          4.87702        0.62806        0.00883
C          6.30999        0.07332       -0.03038
C          7.38635        1.16570       -0.03762
H         -0.53829       -2.47859        0.97792
H         -0.58973       -2.44098       -0.80262
H         -1.82778       -1.51487        0.14381
H          2.22218        0.74855        0.96289
H          2.18139        0.77475       -0.81977
H          3.89246       -1.10431       -0.88456
H          3.93166       -1.13041        0.89401
H          4.75967        1.27606        0.90818
H          4.72103        1.30166       -0.86558
H          6.42542       -0.57467       -0.92889
H          6.46326       -0.59981        0.84373
H          7.27953        1.83174       -0.92048
H          8.40856        0.73492       -0.06520
H          7.31706        1.80609        0.86770
