26
N-PERFLUOROOCTANE.gamout	Energy:   -2100.3776294
F          1.24694        0.60231        1.10593
F          1.24694        0.60231       -1.10593
F         -1.24694       -0.60231       -1.10593
F         -1.24694       -0.60231        1.10594
F          0.90945       -2.14581       -1.10590
F          0.90945       -2.14581        1.10590
F         -0.90945        2.14581        1.10590
F         -0.90945        2.14581       -1.10590
F          3.41064       -0.96115       -1.10596
F          3.41064       -0.96115        1.10596
F         -3.41064        0.96115        1.10596
F         -3.41064        0.96115       -1.10596
F          4.84687       -2.96395        0.00000
F          3.11183       -3.71367        1.09421
F          3.11183       -3.71367       -1.09421
F         -4.84687        2.96395       -0.00000
F         -3.11183        3.71367       -1.09421
F         -3.11183        3.71367        1.09421
C          0.78830       -0.03385        0.00000
C         -0.78830        0.03385       -0.00000
C          1.36028       -1.50150        0.00000
C         -1.36028        1.50150        0.00000
C          2.92924       -1.58023       -0.00000
C         -2.92924        1.58023        0.00000
C          3.50481       -3.04202       -0.00000
C         -3.50481        3.04202       -0.00000
