20
N-PENTYL_FORMATE.gamout	Energy:    -386.0263706
C          3.78874        0.38373        0.46447
C          2.42387       -0.25231        0.20436
C          2.47273       -1.78600        0.13120
O          3.67478        1.81130        0.62022
C          1.09897       -2.42488       -0.13160
C          4.02620        2.59649       -0.42985
C          1.13629       -3.95584       -0.20333
O          3.91837        3.79643       -0.41892
H          4.23377        0.00535        1.40857
H          4.50281        0.15005       -0.36056
H          2.01146        0.16099       -0.74350
H          1.72828        0.06988        1.01039
H          2.89033       -2.19084        1.08197
H          3.18216       -2.10351       -0.66803
H          0.68578       -2.01444       -1.08068
H          0.39218       -2.10298        0.66631
H          4.43686        1.99398       -1.29412
H          0.12896       -4.37918       -0.39670
H          1.50722       -4.39897        0.74547
H          1.80675       -4.30884       -1.01609
