27
N-PENTYLBENZENE.gamout	Energy:    -428.4939531
C          4.06397        2.49461        1.22942
C          5.01996        3.21934        2.20247
C          6.34028        3.61695        1.57198
C          2.73184        2.08298        1.87322
C          6.49750        4.87053        0.94039
C          7.43781        2.72751        1.56547
C          1.77377        1.35892        0.91409
C          7.70848        5.22429        0.32171
C          8.65132        3.07628        0.94940
C          0.44824        0.94725        1.56588
C          8.79078        4.32762        0.32367
H          4.57536        1.59353        0.82061
H          3.86988        3.15407        0.35314
H          4.50990        4.12447        2.60113
H          5.21590        2.56108        3.07802
H          2.93753        1.42834        2.75225
H          2.22505        2.98707        2.28496
H          5.65559        5.58316        0.93974
H          7.33904        1.74598        2.05918
H          1.56996        2.01533        0.03739
H          2.28260        0.45735        0.50241
H          7.80922        6.20968       -0.16100
H          9.49570        2.36858        0.96124
H         -0.21920        0.42643        0.84812
H          0.61387        0.26037        2.42377
H         -0.10527        1.82936        1.95422
H          9.74218        4.60494       -0.15724
