24
N-PROPYLCYCLOPENTANE.gamout	Energy:    -314.2506071
C          1.85316        1.16278        1.55557
C          2.72962        2.35772        1.96056
C          3.93334        2.61859        1.02639
C          0.63915        0.95429        2.47130
C          4.68929        3.92443        1.37424
C          5.06332        1.56450        1.14878
C          5.66495        3.54393        2.52050
C          5.90417        2.00732        2.37605
H          1.50543        1.30962        0.50693
H          2.46714        0.23403        1.54331
H          2.09699        3.27528        1.97888
H          3.08231        2.21516        3.00894
H          3.54558        2.65828       -0.01713
H          0.02537        0.08864        2.14595
H         -0.02130        1.84823        2.47796
H          0.94905        0.76713        3.52218
H          4.00613        4.75755        1.64538
H          5.26500        4.25808        0.48335
H          5.68631        1.59768        0.22836
H          4.68712        0.52347        1.23750
H          5.22021        3.77910        3.51017
H          6.60912        4.12398        2.45932
H          6.97751        1.75843        2.24340
H          5.57554        1.47214        3.29205
