54
N-TRIDECYLCYCLOPENTANE.gamout	Energy:    -707.0809413
C          1.38404        0.92665        2.44894
C          0.55725        1.84647        1.49767
C          2.74922        1.63693        2.64307
C          1.43350        3.09872        1.27456
C          2.88460        2.60032        1.44501
C          3.92400        3.72253        1.60133
C          8.82836        5.21977        2.05843
C          7.86602        4.02593        1.90950
C         10.31671        4.84242        2.17917
C          6.38614        4.43866        1.80905
C          5.39334        3.26856        1.69071
C         15.15164        6.59928        2.81565
C         13.65549        6.93112        2.66800
C         16.05200        7.83415        3.00095
C         12.74265        5.70413        2.48664
C         11.25022        6.05580        2.34975
C         18.42537        8.75897        3.33881
C         17.54824        7.51343        3.15333
H          0.87337        0.76308        3.41996
H          1.52162       -0.07885        1.99861
H          0.37220        1.33321        0.52980
H         -0.43929        2.10229        1.91080
H          2.74097        2.23574        3.58258
H          3.59122        0.92082        2.72773
H          1.25415        3.58182        0.29232
H          1.22290        3.86440        2.05610
H          3.14619        1.99818        0.54057
H          3.81491        4.42454        0.74371
H          3.67029        4.32019        2.50938
H          8.53155        5.81154        2.95585
H          8.69194        5.90926        1.19278
H          8.15017        3.43099        1.01049
H          7.99705        3.34035        2.77883
H         10.62831        4.26142        1.28023
H         10.45111        4.15284        3.04489
H          6.25203        5.12272        0.93868
H          6.12121        5.04826        2.70483
H          5.52356        2.59038        2.56487
H          5.64560        2.65607        0.79359
H         15.29136        5.91130        3.68195
H         15.49322        6.02791        1.92123
H         13.51604        7.62057        1.80274
H         13.31892        7.50658        3.56186
H         15.70822        8.40734        3.89372
H         15.91223        8.52303        2.13502
H         12.87960        5.01426        3.35179
H         13.07290        5.13026        1.58969
H         11.11259        6.74658        1.48526
H         10.92945        6.63667        3.24593
H         18.12980        9.32944        4.24543
H         18.33646        9.44844        2.47198
H         19.49654        8.49188        3.44617
H         17.89431        6.94360        2.26069
H         17.68969        6.82727        4.01974
