41
N-TRIDECANE.gamout	Energy:    -511.8737409
C          7.71477       -0.25451       -0.71937
C          6.44096        0.51040       -0.33994
C          5.15139       -0.31093       -0.50377
C          3.87052        0.45549       -0.13429
C          2.57380       -0.35606       -0.30060
C          1.29640        0.42290        0.05873
C         -0.00469       -0.38148       -0.10945
C         -1.27990        0.40532        0.24196
C         -2.58329       -0.39583        0.07529
C         -3.85770        0.39379        0.42388
C         -5.16188       -0.40596        0.26243
C         -6.43250        0.38577        0.61249
C         -7.72705       -0.42173        0.45293
H          8.62124        0.37215       -0.59032
H          7.84762       -1.16387       -0.09421
H          7.68805       -0.58652       -1.77960
H          6.51830        0.86443        0.71367
H          6.36432        1.43425       -0.95817
H          5.07495       -0.66563       -1.55829
H          5.22594       -1.23521        0.11576
H          3.94764        0.81410        0.91868
H          3.80548        1.37785       -0.75761
H          2.49744       -0.71525       -1.35346
H          2.63559       -1.27778        0.32375
H          1.37033        0.78617        1.11032
H          1.24069        1.34242       -0.56954
H         -0.07896       -0.74599       -1.16060
H          0.04928       -1.30010        0.52012
H         -1.20690        0.77269        1.29220
H         -1.33027        1.32224       -0.39044
H         -2.65748       -0.76498       -0.97425
H         -2.53205       -1.31169        0.70913
H         -3.78365        0.76427        1.47299
H         -3.90836        1.30875       -0.21134
H         -5.24123       -0.77821       -0.78580
H         -5.11241       -1.32000        0.89934
H         -6.35423        0.75840        1.65961
H         -6.48324        1.29847       -0.02443
H         -7.86045       -0.77577       -0.59201
H         -7.72845       -1.31920        1.10802
H         -8.61874        0.18369        0.71551
