101
N-TRITRIACONTANE.gamout	Energy:   -1297.5300759
C         21.70654        3.18739        5.54187
C         20.29289        2.61102        5.73561
C         19.19083        3.37759        4.98323
C         22.80863        2.41925        6.29265
C         17.77717        2.80057        5.17629
C         24.22287        2.99484        6.09928
C         16.67449        3.56523        4.42195
C         25.32539        2.22542        6.84898
C         15.26036        2.98766        4.61363
C         26.74045        2.80041        6.65658
C         14.15798        3.75079        3.85663
C         27.84265        2.02947        7.40577
C         12.74353        3.17265        4.04626
C         29.25860        2.60367        7.21488
C         11.64199        3.93424        3.28621
C         30.36022        1.83133        7.96396
C         10.22744        3.35530        3.47342
C         31.77668        2.40494        7.77454
C          9.12678        4.11513        2.71014
C         32.87730        1.63127        8.52383
C          7.71233        3.53505        2.89483
C         34.29441        2.20409        8.33605
C          6.61235        4.29299        2.12839
C         35.39428        1.42928        9.08557
C          5.19797        3.71195        2.31015
C         36.81196        2.00120        8.89928
C          4.09958        4.46857        1.54042
C         37.91195        1.22728        9.64746
C          2.68500        3.88926        1.71724
C         39.32601        1.80102        9.45917
C          1.59341        4.64727        0.94391
C         40.41421        1.02194       10.20790
C          0.18763        4.06204        1.12466
H         21.71551        4.25438        5.86657
H         21.94874        3.20660        4.45341
H         20.05046        2.59206        6.82401
H         20.28402        1.54394        5.41117
H         19.43452        3.39622        3.89510
H         19.19924        4.44483        5.30717
H         22.56615        2.39864        7.38102
H         22.79872        1.35269        5.96648
H         17.53413        2.78309        6.26459
H         17.76935        1.73297        4.85347
H         24.46464        3.01477        5.01072
H         24.23273        4.06157        6.42484
H         16.68161        4.63279        4.74494
H         16.91926        3.58330        3.33403
H         25.08305        2.20315        7.93736
H         25.31525        1.15931        6.52131
H         15.01571        2.97164        5.70160
H         15.25346        1.91959        4.29233
H         26.98240        2.82114        5.56807
H         26.75108        3.86684        6.98309
H         14.16375        4.81867        4.17861
H         14.40459        3.76816        2.76909
H         27.59985        2.00581        8.49404
H         27.83206        0.96378        7.07674
H         12.73786        2.10410        3.72647
H         12.49672        3.15792        5.13376
H         29.50115        2.62527        6.12652
H         29.26982        3.66979        7.54237
H         11.89073        3.95082        2.19915
H         11.64635        5.00245        3.60716
H         30.34926        0.76599        7.63383
H         30.11684        1.80657        9.05209
H         10.22319        2.28636        3.15493
H          9.97822        3.34158        4.56039
H         31.78827        3.47079        8.10291
H         32.02009        2.42735        6.68637
H          9.12965        5.18369        3.02994
H          9.37772        4.13079        1.62356
H         32.86586        0.56619        8.19292
H         32.63303        1.60580        9.61175
H          7.70997        2.46575        2.57746
H          7.46054        3.52211        3.98121
H         34.30635        3.26965        8.66532
H         34.53858        2.22733        7.24806
H          6.86579        4.30783        1.04237
H          6.61379        5.36190        2.44712
H         35.38245        0.36436        8.75414
H         35.14937        1.40343       10.17335
H          5.19726        2.64245        1.99343
H          4.94333        3.69947        3.39588
H         37.05704        2.02536        7.81150
H         36.82470        3.06643        9.22972
H          4.09959        5.53782        1.85811
H          4.35514        4.48245        0.45485
H         37.67049        1.20136       10.73616
H         37.90340        0.16204        9.31643
H          2.68194        2.81988        1.39964
H          2.42321        3.87738        2.80140
H         39.56982        1.82604        8.37209
H         39.33769        2.86507        9.79027
H          1.85335        4.65958       -0.13969
H          1.59471        5.71557        1.26152
H         40.22979        1.01134       11.30400
H         40.46231       -0.03720        9.87373
H         41.41732        1.46628       10.04493
H         -0.12592        4.07191        2.19092
H         -0.56819        4.63659        0.55115
H          0.13648        3.00726        0.77783
