35
N-UNDECYLIC_ACID.gamout	Energy:    -582.4669888
C          8.13505        1.33709        1.79968
C          6.83538        1.94492        1.24394
C          5.55991        1.20289        1.67992
C          9.41344        2.07496        1.36507
C          4.26405        1.80241        1.11172
C         10.71258        1.45727        1.91207
C          3.00372        1.05451        1.55522
C         11.99446        2.18890        1.47928
C          1.72043        1.62860        0.98369
C         13.28873        1.56288        2.02412
O          0.62894        0.94212        1.42508
O          1.63248        2.57577        0.22411
C         14.56269        2.29631        1.58692
H          8.20208        0.27006        1.48246
H          8.08580        1.31225        2.91342
H          6.76388        3.01321        1.55450
H          6.88624        1.96267        0.13044
H          5.50745        1.18708        2.79375
H          5.63495        0.13354        1.37222
H          9.34941        3.14171        1.68332
H          9.46116        2.10048        0.25134
H          4.30338        1.81140        0.00033
H          4.17194        2.87032        1.40836
H         10.77300        0.39168        1.58868
H         10.66670        1.42622        3.02582
H          2.89885        1.04052        2.66338
H          3.03872       -0.02026        1.26489
H         11.93900        3.25507        1.80184
H         12.04376        2.21846        0.36553
H         13.34325        0.49834        1.69925
H         13.24128        1.53110        3.13691
H         -0.14136        1.38342        1.00291
H         14.66576        2.31035        0.48056
H         14.56308        3.35336        1.93063
H         15.47218        1.81347        1.99969
