51
N-UNDECYLCYCLOHEXANE.gamout	Energy:    -667.8012541
C          5.71309        7.77237        3.39674
C          4.24818        7.38103        3.12860
C          3.29648        8.52844        2.72598
C          6.58162        6.60561        3.90209
C          1.83212        8.04670        2.67182
C          3.67117        9.19290        1.38633
C          8.05416        6.97731        4.14496
C          0.84950        9.15877        2.27642
C          2.69498       10.31115        0.98911
C          8.95849        5.81386        4.59921
C          1.24596        9.80839        0.94424
C          8.66294        5.25203        6.00140
C          9.63072        4.14181        6.44760
C          9.36698        3.61092        7.86879
C         10.32148        2.49310        8.34950
C          9.84183        1.04821        8.11803
C          9.66782        0.61560        6.65724
H          6.16851        8.18649        2.46880
H          5.74391        8.60212        4.14121
H          3.83661        6.88986        4.04072
H          4.22084        6.59536        2.33593
H          3.36108        9.31834        3.51503
H          6.13167        6.20179        4.83734
H          6.53876        5.76879        3.16596
H          1.54358        7.60910        3.65138
H          1.76237        7.21691        1.92915
H          4.70418        9.59558        1.43405
H          3.68082        8.40995        0.59079
H          8.11232        7.80321        4.89222
H          8.47574        7.39799        3.20457
H         -0.18153        8.75141        2.21690
H          0.82812        9.93790        3.07357
H          2.76842       11.14551        1.72448
H          2.98566       10.73832        0.00645
H         10.01681        6.15800        4.57115
H          8.89727        4.99005        3.84979
H          1.14194        9.05930        0.12535
H          0.55383       10.63985        0.69519
H          8.69069        6.08773        6.73976
H          7.62228        4.85640        6.03959
H          9.58895        3.30467        5.71544
H         10.67839        4.52131        6.39960
H          9.43202        4.46969        8.57351
H          8.31405        3.25209        7.94863
H         11.32372        2.63197        7.88156
H         10.48950        2.61340        9.44093
H         10.56787        0.36366        8.61012
H          8.88152        0.89794        8.66321
H          8.86213        1.18120        6.14342
H          9.39920       -0.45878        6.59109
H         10.60178        0.76255        6.07299
