1
NA+1.gamout	Energy:    -162.0285724
Na        -7.66140        3.94500       -0.00000
