18
NAPHTHALENE.gamout	Energy:    -385.6095612
C          3.41569        1.80940        2.13573
C          2.83457        3.09145        2.47470
C          3.53264        3.94507        3.38372
C          1.58391        3.45697        1.88863
C          2.71741        0.95561        1.22704
C          4.66610        1.44368        2.72220
C          4.74676        3.55829        3.93590
C          0.93152        2.60315        1.00891
C          1.50307        1.34221        0.67522
C          5.31821        2.29726        3.60237
H          3.08784        4.92087        3.63990
H          1.14172        4.43347        2.14701
H          3.16213       -0.02025        0.97097
H          5.10835        0.46722        2.46374
H          5.27387        4.22667        4.63527
H         -0.03250        2.89902        0.56512
H          0.97569        0.67361       -0.02375
H          6.28202        2.00120        4.04648
