19
NEOPENTYL_GLYCOL.gamout	Energy:    -347.9315105
C          1.01603        0.85476        2.33341
C          2.03051        2.01685        2.12212
C          1.61960        3.21927        2.99794
C          3.45279        1.54754        2.48761
C          1.97110        2.46602        0.64913
O          1.06188        0.26648        3.61593
O          1.58821        2.82706        4.37799
H          1.23559        0.05007        1.59541
H         -0.00942        1.24103        2.08100
H          0.61504        3.58262        2.66751
H          2.34541        4.05623        2.84501
H          4.19315        2.36443        2.34953
H          3.75776        0.69679        1.84278
H          3.49792        1.20587        3.53931
H          2.29957        1.64624       -0.02299
H          2.63350        3.33774        0.46077
H          0.94040        2.75415        0.34823
H          1.08600        1.02515        4.24260
H          1.23365        3.56801        4.90241
