17
NEOPENTANE.gamout	Energy:    -197.6124767
C          1.07919        1.04393        3.31701
C          1.81474        1.76120        2.16355
C          3.33862        1.70635        2.41085
C          1.48500        1.06074        0.82703
C          1.35659        3.23558        2.09832
H          1.38825       -0.02084        3.39144
H          1.29528        1.52576        4.29455
H         -0.02172        1.06435        3.16818
H          3.70318        0.65774        2.46189
H          3.89727        2.21575        1.59659
H          3.61019        2.20326        3.36677
H          1.80143       -0.00443        0.84021
H          0.39424        1.08372        0.61593
H          2.00187        1.55362       -0.02431
H          1.58217        3.76974        3.04607
H          1.86794        3.78000        1.27576
H          0.26216        3.30877        1.92174
