24
NICORANDIL.gamout	Energy:    -774.7610953
O          3.00246       -0.23351        0.54901
O         -0.95692        2.37529       -0.13132
O          4.59859       -0.22777       -1.08289
O          4.29560       -2.00284        0.18691
N          0.32686        0.72368        0.79155
N         -4.29906       -0.03291       -0.59529
N          4.08149       -0.88353       -0.20356
C          1.50463        1.55872        0.92940
C          2.67502        1.08586        0.06992
C         -0.84301        1.20582        0.24508
C         -1.98896        0.22774        0.13405
C         -1.95800       -1.12352        0.53646
C         -3.19581        0.71151       -0.42517
C         -3.10483       -1.91240        0.36351
C         -4.24626       -1.31964       -0.20639
H          1.82528        1.61338        1.99351
H          1.20692        2.57726        0.60543
H          3.54946        1.76370        0.17944
H          2.39467        1.04412       -1.00441
H          0.41004       -0.25925        1.05316
H         -1.05891       -1.57940        0.98362
H         -3.23485        1.76799       -0.74314
H         -3.11672       -2.97091        0.66653
H         -5.16547       -1.91592       -0.35559
