5
NITROGEN_TRIOXIDE.gamout	Energy:    -334.7654074
O         -0.09522        1.88262        0.33487
N          0.73502        1.91377        1.13507
N          2.39143        1.13653        0.48942
O          2.51590       -0.04696        0.72048
O          3.15499        1.92814       -0.02031
