15
O-CHLOROBENZOIC_ACID.gamout	Energy:    -880.0152706
C          6.31975        1.83363       -0.60207
C          6.85862        0.55867       -0.29478
C          4.93996        2.04631       -0.70245
C          5.94810       -0.51182       -0.07979
C          8.34733        0.38695       -0.22704
C          4.55907       -0.29711       -0.17524
Cl         6.45998       -2.12901        0.33164
C          4.05674        0.97366       -0.48780
O          8.95652       -0.66496       -0.15695
O          8.99545        1.59114       -0.26495
H          7.02166        2.66292       -0.76633
H          4.55406        3.04781       -0.94687
H          3.88209       -1.14561        0.00126
H          2.96784        1.12253       -0.56115
H          9.94990        1.36013       -0.23704
