12
O-DIBROMOBENZENE.gamout	Energy:   -5379.1093250
Br         7.43924        3.36115       -1.07112
C          6.32979        1.86680       -0.67227
C          6.87162        0.60538       -0.33560
C          4.93194        2.03561       -0.71870
Br         8.74934        0.30915       -0.25342
C          6.00929       -0.47148       -0.05044
C          4.07890        0.95857       -0.43364
C          4.61783       -0.29569       -0.09960
H          4.52316        3.02248       -0.98131
H          6.44204       -1.44878        0.21013
H          2.98846        1.10496       -0.47429
H          3.95596       -1.14635        0.12502
