30
O-DIISOPROPYLBENZENE.gamout	Energy:    -467.7695867
C          6.38605        1.83157       -0.65439
C          6.89628        0.57128       -0.31751
C          4.99937        2.09444       -0.73168
C          4.56563        3.51340       -1.11266
C          4.09213        1.03081       -0.45470
C          2.56239        1.13435       -0.48730
C          4.62778       -0.23444       -0.11688
C          6.00553       -0.47678       -0.04480
C          1.97731        2.06504        0.59384
C          1.98285        1.42363       -1.88645
C          5.03807        4.55559       -0.08084
C          5.02952        3.89148       -2.53253
H          7.09547        2.64740       -0.86759
H          7.98460        0.41226       -0.26926
H          3.45963        3.54583       -1.11705
H          2.20839        0.11350       -0.22466
H          3.92601       -1.05722        0.09745
H          6.37738       -1.47769        0.22272
H          0.87043        1.98137        0.61680
H          2.35625        1.79327        1.60002
H          2.22409        3.13266        0.42196
H          0.87695        1.32769       -1.87231
H          2.37434        0.70421       -2.63384
H          2.21927        2.44451       -2.25009
H          4.66561        5.56728       -0.34596
H          4.67092        4.31256        0.93696
H          6.14613        4.61196       -0.03025
H          4.66258        4.90197       -2.80915
H          4.65218        3.17300       -3.28817
H          6.13715        3.90575       -2.61101
