24
O-DIETHYLBENZENE.gamout	Energy:    -389.2104191
C          0.08483       -1.34196        0.39207
C         -1.13422       -0.64878        0.39009
C         -1.14188        0.72438        0.09416
C          0.04567        1.42829       -0.19788
C          1.28573        0.72370       -0.19739
C          1.27612       -0.65643        0.09696
H          0.11454       -2.41968        0.61972
H         -2.07714       -1.17266        0.61465
H         -2.09970        1.27221        0.08506
C         -0.03152        2.92340       -0.46468
C          2.58412        1.44964       -0.53171
H          2.22170       -1.21966        0.09822
H         -1.02448        3.15568       -0.90712
H          0.71598        3.22210       -1.23049
C          0.16097        3.78321        0.80143
H          1.14694        3.59754        1.27606
H         -0.61590        3.55180        1.55946
H          0.09673        4.86642        0.56615
H          2.67613        2.34317        0.12558
H          2.49637        1.86981       -1.56062
C          3.87683        0.63198       -0.43641
H          3.89268       -0.20922       -1.16032
H          4.02190        0.20616        0.57850
H          4.75551        1.27271       -0.65578
