19
O-FLUOROPHENETOLE.gamout	Energy:    -484.9612070
C          6.40933        4.21712       -1.29587
O          6.98699        2.95115       -0.96579
C          6.15857        1.91015       -0.68683
C          7.54337        5.19439       -1.56145
C          6.78873        0.67923       -0.35784
C          4.74845        1.94932       -0.69820
F          8.13546        0.63507       -0.34349
C          6.04749       -0.46277       -0.05340
C          3.99900        0.79618       -0.39050
C          4.63950       -0.40846       -0.06866
H          5.75726        4.11074       -2.19560
H          5.76469        4.56903       -0.45579
H          7.13529        6.19170       -1.82317
H          8.18869        5.30469       -0.66667
H          8.17499        4.84265       -2.40181
H          4.22575        2.88307       -0.94876
H          6.59168       -1.38693        0.19405
H          2.89945        0.85218       -0.40605
H          4.05386       -1.30866        0.17152
