19
O-METHOXYBENZOIC_ACID.gamout	Energy:    -534.9525957
C          6.08827        1.84873       -0.74642
C          6.76451        0.63226       -0.57828
C          4.69221        1.93492       -0.55552
O          4.09603        3.16542       -0.65895
C          3.96241        0.76922       -0.18666
C          2.48488        0.70011        0.05565
C          4.66904       -0.44411       -0.00502
C          6.05152       -0.52272       -0.20449
O          1.78719        1.79377       -0.35153
O          1.92548       -0.26672        0.55282
C          3.72225        3.57241       -1.97543
H          6.63136        2.76993       -1.00899
H          7.85515        0.58755       -0.72871
H          4.08485       -1.32595        0.29936
H          6.57589       -1.48022       -0.06233
H          0.85217        1.58174       -0.13202
H          3.31847        4.59946       -1.88803
H          4.59828        3.58280       -2.66423
H          2.93414        2.90739       -2.39188
