32
O-TERPHENYL.gamout	Energy:    -693.8470906
C          5.22761        4.48845        2.76523
C          4.90560        3.48663        1.79898
C          6.51901        5.06573        2.73501
C          4.29562        4.92976        3.84752
C          5.90403        3.08963        0.87962
C          3.55167        2.86940        1.66149
C          7.48866        4.66892        1.80531
C          3.67495        3.99721        4.70975
C          4.07942        6.30602        4.09000
C          7.18140        3.66440        0.87596
C          2.39410        3.66878        1.52595
C          3.40533        1.46568        1.57389
C          2.86754        4.42725        5.77169
C          3.26500        6.73591        5.14793
C          1.13794        3.08524        1.31073
C          2.14635        0.88139        1.36853
C          2.65557        5.79759        5.99538
C          1.00612        1.68890        1.23352
H          6.76744        5.82215        3.49475
H          5.64839        2.33305        0.12243
H          8.48560        5.13459        1.81812
H          3.84670        2.92169        4.55572
H          4.54820        7.04959        3.42708
H          7.92845        3.33497        0.13839
H          2.48649        4.76404        1.56797
H          4.29447        0.82534        1.68182
H          2.40344        3.68236        6.43572
H          3.10599        7.81312        5.30889
H          0.25229        3.72881        1.19618
H          2.05820       -0.21439        1.31275
H          2.01829        6.13089        6.82793
H          0.01774        1.23435        1.06834
