18
O-XYLENE.gamout	Energy:    -310.6488892
C          2.44170        0.68715        1.26396
C          2.94220        2.11368        1.24591
C          2.03108        3.20053        1.11503
C          4.32111        2.39020        1.35755
C          0.54607        2.94918        0.98372
C          2.53693        4.51708        1.10656
C          4.81185        3.70691        1.34124
C          3.91349        4.77785        1.21852
H          1.70807        0.51815        2.08185
H          3.27419       -0.03109        1.40220
H          1.92215        0.42074        0.31746
H          5.02717        1.54834        1.45549
H          0.31047        2.31828        0.09872
H         -0.01832        3.89706        0.88014
H          0.13891        2.41068        1.86774
H          1.83120        5.35858        1.00378
H          5.89457        3.89200        1.42796
H          4.27932        5.81706        1.20752
