11
OCTAFLUOROPROPANE.gamout	Energy:    -912.3631071
C         -0.96197       -0.97127        1.70586
C          0.33930       -0.53021        0.96211
C          1.68052       -1.03231        1.58807
F         -1.05623       -2.31173        1.73105
F         -2.02790       -0.47076        1.06055
F         -0.96264       -0.50975        2.96877
F          0.27183       -0.99534       -0.31041
F          0.36966        0.82592        0.94009
F          2.70638       -0.58055        0.84875
F          1.81179       -0.57362        2.84429
F          1.71523       -2.37606        1.60661
