56
OCTADECANOIC_ACID.gamout	Energy:    -857.4379639
C          1.19200       -0.23781        0.31118
C          0.67765       -0.00907       -1.12029
C          2.72108       -0.29857        0.41533
C         -0.85535        0.04768       -1.23556
C         -1.37564        0.26575       -2.66848
C         -2.91025        0.31069       -2.78228
C         -3.43377        0.51442       -4.21655
C         -4.96904        0.54626       -4.32869
C         -5.49693        0.73562       -5.76344
C         -7.03278        0.75543       -5.87228
C         -7.56598        0.93249       -7.30674
C         -9.10232        0.94278       -7.41107
C         -9.64010        1.11053       -8.84504
C        -11.17683        1.11378       -8.94524
C        -11.71801        1.27435      -10.37878
C        -13.25377        1.27046      -10.46820
C        -13.79247        1.42345      -11.89582
C        -15.32116        1.41105      -11.97432
O        -16.06221        1.29520      -11.02476
O        -15.84029        1.54095      -13.23302
H          0.75332       -1.18186        0.70803
H          0.80615        0.57105        0.97335
H          1.06496       -0.81983       -1.78103
H          1.11544        0.93504       -1.52048
H          3.13778       -1.12306       -0.20240
H          3.05116       -0.46662        1.46091
H          3.19092        0.64530        0.06431
H         -1.24269        0.85755       -0.57405
H         -1.28709       -0.89772       -0.83197
H         -0.98568       -0.54631       -3.32588
H         -0.94619        1.21019       -3.07655
H         -3.30337        1.12203       -2.12602
H         -3.33495       -0.63515       -2.37221
H         -3.03839       -0.29933       -4.86864
H         -3.01221        1.45919       -4.63212
H         -5.36742        1.35915       -3.67754
H         -5.38549       -0.39999       -3.91106
H         -5.09680       -0.07956       -6.41084
H         -5.08352        1.68076       -6.18646
H         -7.43518        1.56978       -5.22543
H         -7.44159       -0.19098       -5.44743
H         -7.16265        0.11621       -7.95078
H         -7.15987        1.87794       -7.73632
H         -9.50725        1.75831       -6.76737
H         -9.50486       -0.00363       -6.98031
H         -9.23432        0.29333       -9.48644
H         -9.23925        2.05618       -9.27935
H        -11.58433        1.93018       -8.30474
H        -11.57522        0.16758       -8.51083
H        -11.30985        0.45619      -11.01785
H        -11.32118        2.22020      -10.81688
H        -13.67728        2.08475       -9.84073
H        -13.66087        0.32905      -10.03918
H        -13.40931        0.60815      -12.55407
H        -13.42980        2.37142      -12.35916
H        -15.11182        1.62322      -13.88032
