12
OCTAFLUOROCYCLOBUTANE.gamout	Energy:    -950.3845746
C          4.37203        0.86344        0.54493
F          4.54876        2.15923        0.87726
F          3.23393        0.39023        1.07852
C          5.66447       -0.00437        0.81618
C          4.55236        0.61632       -1.00513
F          5.36283       -1.24994        1.23888
F          6.58150        0.55734        1.62088
C          5.99609        0.03760       -0.72842
F          3.70710       -0.32646       -1.47273
F          4.50541        1.71439       -1.77727
F          6.96660        0.93019       -1.01658
F          6.26357       -1.14863       -1.29843
