16
P-BROMOANISOLE.gamout	Energy:   -2920.0344625
Br        -2.42554       -0.08529       -0.00024
C         -0.51628        0.04514       -0.00009
C          0.09588        1.31406        0.00038
C          1.49135        1.40890        0.00026
C          2.29239        0.24256       -0.00002
C          1.66924       -1.02479       -0.00053
C          0.26480       -1.11944        0.00236
O          3.64142        0.44399       -0.00016
C          4.49579       -0.68921       -0.00055
H         -0.52284        2.22347        0.00056
H          1.99130        2.38930        0.00051
H          2.26246       -1.95000       -0.00092
H         -0.21740       -2.10819        0.00203
H          4.34762       -1.32075        0.90504
H          4.34757       -1.32017       -0.90653
H          5.53134       -0.29944       -0.00050
