15
P-BROMOTOLUENE.gamout	Energy:   -2844.8815257
Br        -3.26730        0.00588       -0.00288
C          1.47463       -0.00692        0.00168
C          0.74222       -1.21033        0.07482
C          0.74706        1.20255       -0.07283
C          2.98713       -0.00118        0.00198
C         -0.66409       -1.21965        0.07446
C         -0.65666        1.21816       -0.07480
C         -1.35495       -0.00007       -0.00075
H          1.28109       -2.17053        0.13382
H          1.28966        2.16094       -0.13115
H          3.39083        0.57675        0.86080
H          3.39908       -1.02796        0.06412
H          3.39112        0.46782       -0.92087
H         -1.21605       -2.16960        0.13196
H         -1.20489        2.17029       -0.13331
