14
P-CHLORONITROBENZENE.gamout	Energy:    -895.9509101
C          6.36351        1.83402       -0.63862
C          6.90189        0.58443       -0.30510
C          4.96901        1.97991       -0.70458
C          6.03340       -0.49478       -0.04384
C          4.09726        0.91083       -0.44591
N          4.40021        3.30619       -1.05914
C          4.63405       -0.33938       -0.11211
Cl         6.70213       -2.05188        0.37207
O          5.19570        4.22323       -1.27906
O          3.17127        3.40173       -1.10991
H          7.00202        2.70310       -0.85003
H          7.98997        0.43803       -0.24540
H          3.01284        1.07608       -0.51081
H          3.97764       -1.19656        0.09611
