12
P-DICHLOROBENZENE.gamout	Energy:   -1151.0757872
C         -0.70192        1.22198        0.00001
C          0.70193        1.22198        0.00020
C          0.70192       -1.22198        0.00066
C         -0.70192       -1.22198        0.00002
C         -1.39832        0.00000       -0.00014
C          1.39832       -0.00000        0.00030
Cl         3.14927        0.00000       -0.00028
Cl        -3.14927       -0.00000       -0.00024
H         -1.25804        2.17078        0.00338
H          1.25805        2.17078       -0.00003
H          1.25805       -2.17078        0.00076
H         -1.25805       -2.17078       -0.00007
