12
P-DIFLUOROBENZENE.gamout	Energy:    -430.3987256
F          7.14736        2.88678       -0.94315
C          6.32591        1.85164       -0.66847
C          6.88144        0.60706       -0.33607
C          4.93751        2.04532       -0.72228
C          6.02739       -0.47102       -0.05022
C          4.08346        0.96724       -0.43643
C          4.63899       -0.27734       -0.10403
F          3.81755       -1.31248        0.17065
H          7.97522        0.49378       -0.30433
H          4.53919        3.03605       -0.98692
H          6.42570       -1.46175        0.21442
H          2.98968        1.08051       -0.46817
