16
P-DINITROBENZENE.gamout	Energy:    -640.8217629
O          6.69974        4.06298       -1.25901
N          7.22700        2.98819       -0.97004
O          8.43848        2.77550       -0.91001
C          6.31802        1.84243       -0.66598
C          6.88588        0.60202       -0.33500
C          4.93067        2.04798       -0.72265
C          6.03427       -0.47373       -0.04994
C          4.07906        0.97224       -0.43753
C          4.64690       -0.26817       -0.10656
N          3.73794       -1.41391        0.19751
O          2.52645       -1.20123        0.13744
O          4.26519       -2.48870        0.48648
H          7.97968        0.50215       -0.30693
H          4.54521        3.04212       -0.98777
H          6.41969       -1.46786        0.21526
H          2.98525        1.07211       -0.46561
