20
P-ETHYLANILINE.gamout	Energy:    -365.9655716
C          6.45082        1.69130       -1.14349
C          6.92294        0.58065       -0.39985
C          5.07632        1.93260       -1.27816
C          4.11010        1.08922       -0.68676
C          4.58878       -0.01500        0.05167
C          2.62576        1.38626       -0.79627
C          5.95952       -0.27192        0.19569
N          8.28597        0.29790       -0.31363
C          2.09801        2.31189        0.31755
H          7.17584        2.36803       -1.62627
H          4.74615        2.80614       -1.86631
H          3.86649       -0.70140        0.52596
H          2.41301        1.84731       -1.78595
H          2.05708        0.43014       -0.77865
H          6.29479       -1.15151        0.77061
H          8.57422       -0.28255        0.47642
H          8.91670        1.08663       -0.47034
H          1.00972        2.50338        0.20481
H          2.26591        1.86720        1.32076
H          2.61940        3.29226        0.30111
