21
P-ETHYLTOLUENE.gamout	Energy:    -349.9314187
C          2.61022        5.35213        0.73775
C          3.22129        4.81119        2.04582
C          4.38238        3.86165        1.81584
C          5.72078        4.30839        1.87706
C          4.16234        2.50644        1.49015
C          6.79170        3.43922        1.61740
C          5.23387        1.63651        1.22848
C          6.57097        2.08420        1.28466
C          7.72888        1.15334        0.99792
H          1.74888        6.02205        0.94200
H          2.25045        4.52341        0.09232
H          3.35969        5.92412        0.15193
H          3.56342        5.66515        2.67029
H          2.43125        4.29420        2.63390
H          5.92707        5.36089        2.13621
H          3.12970        2.12027        1.44385
H          7.82515        3.82082        1.67695
H          5.02695        0.58204        0.97928
H          8.33623        1.51598        0.14075
H          8.41821        1.07708        1.86654
H          7.37889        0.13041        0.75461
