19
P-FLUOROPHENETOLE.gamout	Energy:    -484.9647077
C          6.34453        1.77333       -0.64610
C          6.78667        0.47420       -0.29885
C          4.97785        2.06337       -0.72696
C          4.04248        1.05015       -0.45996
F          2.72092        1.32793       -0.53848
C          4.45725       -0.24018       -0.11495
C          5.83170       -0.53284       -0.03276
O          8.13945        0.29446       -0.24796
C          8.65040       -0.99418        0.09608
C         10.16951       -0.92099        0.07505
H          7.10166        2.54535       -0.84995
H          4.62252        3.06954       -0.99579
H          3.70141       -1.01359        0.08875
H          6.14263       -1.55095        0.23940
H          8.28208       -1.29121        1.10731
H          8.27861       -1.75572       -0.63055
H         10.60315       -1.90639        0.34106
H         10.53822       -0.63762       -0.93139
H         10.53773       -0.16949        0.80241
