15
P-HYDROXY_BENZALDEHYDE.gamout	Energy:    -420.4945646
O         -0.02489        3.25948        0.14887
C          0.65737        2.24538        0.09918
C          2.13740        2.21241        0.13972
C          2.87738        3.41356        0.24255
C          2.83161        0.98186        0.07637
C          4.27296        3.38576        0.28140
C          4.22794        0.93998        0.11409
C          4.95796        2.14684        0.21729
O          6.31298        2.06016        0.25129
H          0.17549        1.22195        0.01544
H          2.32294        4.36424        0.29116
H          2.25761        0.04295       -0.00411
H          4.84879        4.32410        0.36205
H          4.78062       -0.01015        0.06557
H          6.68659        2.95997        0.32309
