19
P-METHYLSTYRENE.gamout	Energy:    -348.7043131
C          0.92460        2.62557        0.89663
C          1.97324        1.77228        0.91325
C          3.40871        2.10876        0.90923
C          3.89685        3.43794        0.90329
C          4.36725        1.06475        0.91082
C          5.27232        3.70423        0.89906
C          5.74245        1.33456        0.90648
C          6.22651        2.66136        0.90069
C          7.71147        2.94682        0.89456
H          1.05124        3.72068        0.87798
H         -0.11076        2.25103        0.90142
H          1.75895        0.68758        0.93109
H          3.18795        4.28083        0.90153
H          4.01829        0.01857        0.91521
H          5.61972        4.75092        0.89479
H          6.45903        0.49599        0.90758
H          8.21454        2.49664        1.77727
H          8.20239        2.51905       -0.00615
H          7.91839        4.03542        0.90639
