16
P-NITROANILINE.gamout	Energy:    -491.7786178
O          6.68899        4.05403       -1.23980
N          7.20859        2.96811       -0.95098
O          8.42838        2.76654       -0.88758
C          6.31397        1.83789       -0.66312
N          3.76560       -1.38283        0.17717
C          4.60074       -0.33375       -0.12180
C          6.86331        0.58413       -0.33776
C          4.92042        2.02162       -0.72200
C          6.01595       -0.49057       -0.06982
C          4.07255        0.94722       -0.45387
H          2.77097       -1.30914       -0.03195
H          4.14531       -2.32659        0.23693
H          7.95661        0.47885       -0.30254
H          4.52875        3.01502       -0.98155
H          6.44315       -1.47378        0.18549
H          2.98051        1.08764       -0.49988
