25
P-TERT-BUTYLPHENOL.gamout	Energy:    -464.3767814
C          7.62269        3.78130        0.31479
C          7.25134        3.03683       -0.99459
C          6.61726        4.05265       -1.96806
C          8.54281        2.47953       -1.64970
C          6.29029        1.87163       -0.67107
C          6.69432        0.83391        0.20508
C          4.99123        1.77141       -1.21245
C          5.85937       -0.24291        0.52684
C          4.13824        0.69741       -0.90112
C          4.56425       -0.32139       -0.02828
O          3.78196       -1.38931        0.31055
H          8.11993        3.10911        1.04383
H          6.71916        4.19917        0.80587
H          8.31895        4.62075        0.10275
H          6.35243        3.58405       -2.93875
H          5.69979        4.51237       -1.54498
H          7.33191        4.87482       -2.18180
H          8.31072        1.94441       -2.59416
H          9.07257        1.76796       -0.98353
H          9.24733        3.30546       -1.88590
H          7.69929        0.86168        0.65683
H          4.61414        2.54283       -1.89917
H          6.19292       -1.03932        1.20963
H          3.12800        0.65320       -1.34473
H          2.92594       -1.30109       -0.15052
