45
PENTADECANENITRILE.gamout	Energy:    -643.3277319
N         -7.85547        6.79064       -0.00045
C         -0.59593       -0.16259        0.00033
C          0.94163       -0.22658        0.00039
C         -1.16480        1.26869        0.00042
C          1.51960       -1.65416        0.00021
C         -2.70227        1.33981        0.00030
C          3.05791       -1.70799        0.00018
C         -3.26526        2.77389        0.00029
C          3.64807       -3.13066       -0.00011
C         -4.80327        2.84841        0.00006
C          5.18601       -3.17373       -0.00010
C         -5.35588        4.28364       -0.00000
C          5.78162       -4.59147       -0.00039
C         -6.90264        4.32978       -0.00029
C          7.31517       -4.61389       -0.00045
C         -7.44494        5.69293       -0.00038
H         -0.98587       -0.71379        0.88791
H         -0.98577       -0.71356       -0.88745
H          1.32971        0.32646       -0.88692
H          1.32975        0.32619        0.88784
H         -0.77391        1.81924        0.88793
H         -0.77380        1.81933       -0.88701
H          1.13331       -2.20777       -0.88750
H          1.13332       -2.20801        0.88778
H         -3.09450        0.79081       -0.88759
H         -3.09475        0.79074        0.88803
H          3.44200       -1.15198       -0.88706
H          3.44211       -1.15231        0.88758
H         -2.87383        3.32341       -0.88730
H         -2.87412        3.32342        0.88799
H          3.26673       -3.68808        0.88741
H          3.26672       -3.68773       -0.88784
H         -5.19826        2.30264       -0.88836
H         -5.19861        2.30264        0.88832
H          5.56852       -2.61665       -0.88752
H          5.56855       -2.61703        0.88755
H         -4.98197        4.83861       -0.88833
H         -4.98233        4.83860        0.88849
H          5.40234       -5.14932       -0.88741
H          5.40242       -5.14967        0.88645
H         -7.30798        3.79656       -0.88948
H         -7.30834        3.79655        0.88874
H          7.70780       -5.65138       -0.00063
H          7.72985       -4.10153        0.89451
H          7.72986       -4.10125       -0.89525
