33
PENTMPYR+1.gamout	Energy:    -448.4930346
N          0.40279        0.34658       -0.02399
C         -0.64442        0.91771       -1.01451
C          1.37086        1.52480        0.25703
C          1.02231        2.60386       -0.76899
H          2.41016        1.15128        0.21141
H          1.17132        1.86866        1.28981
C         -0.49463        2.43538       -0.93908
H         -1.64055        0.51830       -0.74595
H         -0.37381        0.54211       -2.02030
H         -1.04433        2.85511       -0.07004
H         -0.89566        2.92408       -1.84865
H          1.54832        2.42409       -1.73000
H          1.32148        3.60910       -0.41273
C         -0.27978       -0.08601        1.24661
H         -0.90541        0.74630        1.61846
H          0.48113       -0.34309        2.00529
H         -0.91352       -0.96830        1.03729
C          1.12971       -0.83283       -0.68153
C          2.10595       -1.60755        0.20270
H          1.65018       -0.40166       -1.56197
H          0.33112       -1.50268       -1.06329
C          2.86539       -2.66549       -0.62783
H          1.56618       -2.12104        1.02720
H          2.83580       -0.91600        0.67746
C          3.78673       -3.57316        0.20958
H          2.12643       -3.30026       -1.16709
H          3.46317       -2.15211       -1.41577
C          4.94392       -2.85293        0.91484
H          4.59296       -2.12365        1.67559
H          5.58559       -2.30562        0.19108
H          5.59360       -3.57801        1.44511
H          3.17272       -4.12345        0.95825
H          4.19760       -4.35132       -0.46827
