27
PENTPY+1.gamout	Energy:    -444.8952216
C         -3.94597       -2.07686        0.62266
C         -3.08867       -0.81227        0.75359
H         -3.90488       -2.69265        1.54585
H         -3.60320       -2.71344       -0.21984
H         -5.00920       -1.82282        0.43847
C         -1.60123       -1.11693        1.00553
C         -0.73919        0.15177        1.12971
C          0.72497       -0.18620        1.44354
H         -0.78637        0.74027        0.18654
H         -1.15118        0.80558        1.93091
H         -1.50162       -1.72794        1.93195
H         -1.20712       -1.75134        0.17924
H         -3.47623       -0.17963        1.58380
H         -3.18283       -0.19420       -0.16772
N          1.60317        1.02570        1.50063
H          1.15693       -0.85451        0.67265
H          0.82377       -0.69956        2.42261
C          2.52762        1.24931        0.52539
C          3.33627        2.38669        0.55323
C          3.18735        3.31157        1.60058
C          2.22626        3.06535        2.59812
C          1.44567        1.91244        2.52480
H          2.60170        0.48718       -0.26421
H          4.07977        2.53566       -0.24386
H          3.81587        4.21453        1.64159
H          2.07666        3.76203        3.43615
H          0.67906        1.66257        3.27290
