5
PERCHLORYL_FLUORIDE.gamout	Energy:    -784.9933515
Cl        -0.04407        1.79288       -0.08523
F          1.30212        1.78225        0.99623
O          0.19569        3.01831       -0.85842
O         -1.18060        1.83508        0.84405
O          0.14030        0.53101       -0.81371
