14
PHENYL_ISOCYANATE.gamout	Energy:    -399.4512494
C          6.81505        4.17234       -1.28541
N          6.87930        2.99717       -0.97470
C          6.11486        1.87005       -0.67585
O          6.89246        5.31493       -1.58751
C          6.77756        0.66458       -0.35275
C          4.69973        1.90833       -0.68832
C          6.03187       -0.48387       -0.04587
C          3.96674        0.75334       -0.37957
C          4.62622       -0.44685       -0.05704
H          7.87762        0.64794       -0.34686
H          4.18447        2.84828       -0.94094
H          6.55780       -1.41847        0.20548
H          2.86594        0.79376       -0.39153
H          4.04517       -1.35024        0.18465
