19
PHENETOLE.gamout	Energy:    -385.8020435
C          1.14140        4.40005        1.49869
O          1.55642        3.19296        0.85047
C          2.85410        2.77409        0.94611
C          0.86991        4.20930        2.99074
C          3.88997        3.47752        1.60160
C          3.14582        1.54274        0.31253
C          5.19440        2.94830        1.61146
C          4.44817        1.02914        0.33336
C          5.48500        1.72762        0.98283
H          0.20771        4.68729        0.97259
H          1.88404        5.21097        1.31804
H          0.49463        5.15409        3.43632
H          0.10318        3.42357        3.14791
H          1.78450        3.90910        3.54128
H          3.69366        4.43326        2.10792
H          2.32457        1.01191       -0.19257
H          5.99251        3.50720        2.12631
H          4.65725        0.06938       -0.16596
H          6.50800        1.32153        0.99883
