15
PHLOROGLUCINOL.gamout	Energy:    -457.5886799
O         -3.27527       -0.86098       -0.57020
O          1.36606       -1.81210        0.16403
O         -0.31476        2.62004        0.87916
C         -2.03603       -0.41654       -0.20629
C          0.30697       -0.94970        0.15164
C         -0.49545        1.31252        0.52817
C         -0.98789       -1.36079       -0.21558
C         -1.80076        0.92087        0.16353
C          0.56395        0.38620        0.52551
H         -1.20073       -2.40045       -0.50927
H         -2.61056        1.66695        0.17448
H          1.58681        0.68006        0.80809
H         -3.89657       -0.10997       -0.51902
H          1.04747       -2.69203       -0.11322
H          0.62604        2.74917        1.10481
