4
PHOSPHINE.gamout	Energy:    -343.0689621
P         -0.69737        0.40179        0.23264
H          0.74083        0.42500        0.33082
H         -0.65205        0.15065       -1.18644
H         -0.76245        1.82829        0.03450
