4
PHOSPHORUS_TRICHLORIDE.gamout	Energy:   -1721.6416190
Cl        -0.96680        1.60077        0.24140
Cl        -0.90298       -1.63767        0.24161
Cl         1.86987        0.03688        0.24109
P         -0.00009       -0.00008       -0.70730
