15
PHTHALIC_ANHYDRIDE.gamout	Energy:    -532.5766959
C         -3.39308        0.71853        0.51173
C         -2.50291       -0.08832       -0.20738
C         -2.90350        1.33181        1.68160
C         -1.17817       -0.28102        0.21576
C         -2.69674       -0.86662       -1.46504
C         -1.57007        1.13792        2.10728
C         -0.68218        0.32398        1.37678
C         -0.51262       -1.18467       -0.76701
O         -1.47143       -1.50087       -1.74892
O         -3.66379       -0.99456       -2.17130
O          0.61147       -1.61512       -0.80445
H         -4.42955        0.86262        0.17072
H         -3.56988        1.97484        2.27773
H         -1.22131        1.63317        3.02707
H          0.35834        0.16553        1.69852
