17
PHTHALAN.gamout	Energy:    -384.5918772
O          2.48495       -0.00011        0.08295
C          0.24663        0.70347        0.03669
C          0.24658       -0.70354        0.03669
C          1.67897        1.18199        0.06663
C          1.67890       -1.18215        0.06665
C         -0.95917        1.42022        0.01185
C         -0.95926       -1.42022        0.01184
C         -2.17146        0.70449       -0.01313
C         -2.17150       -0.70442       -0.01314
H          1.93307        1.80555       -0.82590
H          1.89626        1.80459        0.96944
H          1.89615       -1.80475        0.96946
H          1.93297       -1.80574       -0.82587
H         -0.96459        2.52239        0.01181
H         -0.96474       -2.52240        0.01180
H         -3.12801        1.25031       -0.03275
H         -3.12808       -1.25018       -0.03282
