23
PIMELIC_ACID.gamout	Energy:    -574.4905473
C          3.69856        2.45136        4.40799
C          4.16848        3.21457        3.16447
C          5.63385        3.66735        3.25625
C          2.26137        1.95106        4.42441
C          6.11092        4.43029        2.01168
O          1.57522        2.26687        3.29049
O          1.75628        1.33083        5.34145
C          7.57331        4.88175        2.10761
C          8.14780        5.65022        0.92610
O          7.24554        5.82755       -0.07921
O          9.28761        6.07134        0.86232
H          3.81575        3.06670        5.32789
H          4.33119        1.55398        4.59154
H          3.51407        4.09904        3.00334
H          4.02980        2.57494        2.26593
H          5.76930        4.30690        4.15923
H          6.28687        2.77843        3.42024
H          5.97859        3.79359        1.11009
H          5.46298        5.31847        1.84523
H          0.67412        1.89470        3.42113
H          8.25422        4.01513        2.26465
H          7.73756        5.52932        2.99778
H          7.72742        6.32876       -0.77501
