38
PINDOLOL.gamout	Energy:    -804.8782544
O          1.19916       -2.61735        0.31964
O          1.40381       -4.32868       -2.02933
N          4.21938       -3.74498       -2.53165
N         -1.18898        0.98339        1.94923
C          2.36258       -4.27989       -0.98560
C          3.45768       -3.28021       -1.38513
C          5.13640       -2.78322       -3.15283
C          1.73067       -3.93320        0.37089
C         -0.03466       -0.83221        1.25861
C          0.52577       -2.13268        1.40522
C          5.65042       -3.37476       -4.47407
C          6.30604       -2.33091       -2.24969
C         -0.75559       -0.26580        2.35799
C         -0.05935        0.12725        0.18543
C          0.35302       -2.81288        2.62314
C         -0.93586       -0.94167        3.58442
C         -0.77313        1.22115        0.64677
C         -0.37019       -2.21538        3.69117
H          2.85394       -5.28051       -0.83415
H          4.06959       -3.06644       -0.46653
H          2.95316       -2.32673       -1.65178
H          4.51939       -1.88576       -3.39401
H          4.72702       -4.61088       -2.30035
H          2.49859       -4.02139        1.17834
H          0.92143       -4.66849        0.60510
H          6.28551       -2.65061       -5.02505
H          6.26866       -4.28020       -4.28321
H          4.80117       -3.67381       -5.11999
H          5.94639       -1.88852       -1.29748
H          6.93858       -1.56687       -2.75025
H          6.96070       -3.19510       -1.99946
H          0.39101        0.01817       -0.80673
H          0.78014       -3.81477        2.76826
H          0.76057       -5.02787       -1.80943
H         -1.73342        1.62855        2.51962
H         -1.49420       -0.49026        4.41873
H         -1.02156        2.16328        0.14320
H         -0.48440       -2.78011        4.63009
