22
POHPY+1.gamout	Energy:    -441.4807425
O         -3.85357       -0.44910        0.71859
C         -2.86644       -1.35682        0.29291
C         -2.53795       -1.19623       -1.20530
H         -1.96145       -1.12966        0.90044
H         -3.13157       -2.42361        0.50761
C         -1.39354       -2.07743       -1.71927
H         -2.33718       -0.12242       -1.41362
H         -3.42932       -1.45836       -1.81699
N         -0.08202       -1.79520       -1.04703
H         -1.23406       -1.93438       -2.80719
H         -1.60229       -3.15253       -1.55231
C          0.48171       -2.72541       -0.22683
C          1.69245       -2.47093        0.41904
C          2.33263       -1.23617        0.21831
C          0.52697       -0.59309       -1.25564
C          1.73722       -0.28844       -0.63379
H         -0.06509       -3.67257       -0.11158
H          2.12292       -3.24366        1.07297
H          3.28836       -1.01565        0.71849
H          0.01336        0.10523       -1.93276
H          2.20641        0.68819       -0.82382
H         -4.72504       -0.75845        0.40457
