9
PROPIONITRILE.gamout	Energy:    -171.9338281
N          2.52222       -0.73020        0.00000
C         -0.11533       -0.61237       -0.00000
C         -0.65554        0.83110        0.00000
C          1.35107       -0.68816       -0.00000
H         -0.48439       -1.16987        0.88886
H         -0.48439       -1.16987       -0.88886
H         -1.76391        0.81933        0.00000
H         -0.31579        1.38634       -0.89698
H         -0.31579        1.38634        0.89698
