7
PROPADIENE.gamout	Energy:    -116.5681411
C          3.14126        0.81223        0.67346
C          1.94778        1.36795        0.73198
C          0.75410        1.92320        0.79052
H          3.35488       -0.02270       -0.01751
H          3.97141        1.16116        1.31317
H         -0.02158        1.54921        1.48236
H          0.48559        2.78250        0.15053
