17
PROPYLENE_GLYCOL_DINITRATE.gamout	Energy:    -678.0544026
C         51.82909       29.69124       -0.15878
C         53.14688       28.89947       -0.07578
O         53.79014       29.07385        1.20948
C         52.91201       27.39274       -0.21119
O         51.97759       31.04054       -0.61470
N         54.79633       30.14350        1.28325
N         52.11157       32.05125        0.45497
O         55.29560       30.20407        2.37547
O         54.99508       30.79485        0.27840
O         52.23117       33.15731        0.00128
O         52.07286       31.65464        1.60043
H         51.17302       29.23129       -0.92757
H         51.30478       29.66691        0.81983
H         53.83164       29.26652       -0.86944
H         53.86785       26.84786       -0.08867
H         52.49755       27.15416       -1.21149
H         52.20439       27.02573        0.56032
