17
PROTOCATECHUIC_ACID.gamout	Energy:    -570.8621188
O         -3.67095        2.49663        0.00223
O         -5.92620        1.10485        0.22645
O         -0.03398       -0.85191       -1.06799
O         -1.04209       -2.87832       -1.14471
C         -2.37747       -0.93078       -0.66161
C         -2.39625        0.47336       -0.48048
C         -3.58672        1.14889       -0.18327
C         -3.57613       -1.66046       -0.54117
C         -4.79824        0.40432       -0.06240
C         -4.77178       -0.99184       -0.24404
C         -1.12607       -1.67049       -0.97742
H         -1.45805        1.04305       -0.57540
H         -3.55143       -2.75072       -0.68372
H         -5.71449       -1.55769       -0.14818
H         -2.77791        2.87538       -0.10849
H         -6.67251        0.47705        0.27938
H          0.71447       -1.45252       -1.27669
