12
PY+1.gamout	Energy:    -248.4719849
N          0.22590        0.72316        0.79818
C          0.61948        1.85856        1.43389
C          0.13728        3.09019        0.99033
C         -0.74599        3.12515       -0.10596
C         -0.62447        0.71678       -0.26242
C         -1.13022        1.92676       -0.73809
H          1.31134        1.73960        2.28075
H          0.45450        4.01003        1.50323
H         -1.13607        4.08907       -0.46889
H         -1.81844        1.92366       -1.59607
H         -0.87144       -0.26376       -0.69553
H          0.59074       -0.17841        1.13759
