10
PYRAZINE.gamout	Energy:    -264.1253627
C          0.97787        1.04946        1.83093
C          0.95421        0.32615        0.62251
N          2.12899        1.43992        2.40519
N          2.08139       -0.01531       -0.02568
C          3.25616        1.09851        1.75698
C          3.23249        0.37516        0.54857
H          0.03812        1.31974        2.34700
H         -0.00456        0.01517        0.16801
H          4.21493        1.40942        2.21150
H          4.17225        0.10495        0.03248
