26
PYRENE.gamout	Energy:    -615.3280274
C          3.45723        3.81159        1.39260
C          4.73264        3.40793        1.90645
C          5.69925        4.40052        2.29820
C          5.05010        2.00914        2.03223
C          2.49055        2.81900        1.00101
C          3.13969        5.21038        1.26706
C          5.35264        5.79387        2.16079
C          6.95187        3.97621        2.80319
C          4.06150        1.03834        1.63187
C          6.31668        1.63632        2.54293
C          2.83708        1.42565        1.13864
C          1.23778        3.24332        0.49639
C          4.12824        6.18118        1.66754
C          1.87300        5.58320        0.75663
C          7.25321        2.61047        2.92281
C          0.93636        4.60906        0.37698
H          6.09663        6.54934        2.46196
H          7.69257        4.73511        3.10325
H          4.31019       -0.03095        1.73048
H          6.56133        0.56604        2.63988
H          2.09301        0.67015        0.83773
H          0.49701        2.48442        0.19646
H          3.87951        7.25047        1.56899
H          1.62830        6.65348        0.65981
H          8.23355        2.30028        3.31813
H         -0.04411        4.91926       -0.01800
