29
RESVERATROL.gamout	Energy:    -765.8244920
O         -4.93729       -2.14696       -0.25439
O         -4.14131        2.54328        0.31563
O          6.32359       -0.30790        0.01951
C         -1.75957       -0.22625       -0.01922
C          2.13511        0.17434       -0.02424
C         -0.31567       -0.49519       -0.03805
C          0.69152        0.42511       -0.03820
C         -2.29653        1.07118        0.13686
C         -2.65156       -1.32121       -0.15126
C         -4.04319       -1.12100       -0.13035
C         -3.68818        1.26443        0.15637
C          2.71081       -1.11633        0.07890
C          3.02942        1.27382       -0.10221
C         -4.57081        0.17451        0.02412
C          4.09663       -1.29742        0.09641
C          4.41634        1.10707       -0.08740
C          4.96527       -0.18719        0.01036
H         -0.05153       -1.56703       -0.05423
H          0.42251        1.49561       -0.05053
H         -1.65258        1.95139        0.26384
H         -2.24787       -2.33981       -0.27314
H          2.06328       -2.00237        0.15783
H          2.61407        2.29146       -0.17663
H         -5.66353        0.30689        0.04203
H          4.51517       -2.31412        0.18147
H          5.09756        1.96783       -0.14825
H         -4.43645       -2.97926       -0.34802
H         -5.11693        2.52627        0.32152
H          6.55060       -1.25521        0.08470
