26
S-NICOTINE.gamout	Energy:    -498.6148014
C          0.28764       -0.52343       -0.13566
C          1.76087       -0.16743       -0.47480
C          2.03581        1.17399        0.27193
N          0.69110        1.72698        0.46336
C         -0.15273        0.59242        0.82667
C          2.97170        2.10874       -0.47146
C          2.51673        2.85334       -1.58286
N          3.29214        3.66082       -2.32366
C          4.58904        3.76271       -1.98037
C          5.15521        3.07991       -0.89200
C          4.32829        2.24326       -0.12719
C          0.61544        2.83426        1.39395
H          2.50665        0.93740        1.26905
H         -0.33591       -0.51513       -1.05218
H          0.18193       -1.52583        0.32461
H          2.48068       -0.94832       -0.15828
H          1.89613       -0.02370       -1.56546
H         -1.22878        0.85465        0.73977
H          0.02418        0.28242        1.89503
H          1.45066        2.78450       -1.86403
H          5.21298        4.42880       -2.60313
H          6.22057        3.20479       -0.64639
H          4.73357        1.69574        0.73933
H         -0.42782        3.20455        1.45564
H          1.25234        3.67383        1.04943
H          0.94304        2.55476        2.43371
