15
SALICYLALDEHYDE.gamout	Energy:    -420.4914550
C          6.33491        1.88109       -0.76000
C          6.85046        0.62035       -0.44221
C          4.93947        2.08148       -0.72404
C          4.07520        1.03382       -0.37462
C          4.59579       -0.23877       -0.05352
C          6.00231       -0.45338       -0.08678
O          3.79153       -1.28185        0.29119
C          6.59747       -1.77513        0.24243
O          7.80071       -2.00305        0.22596
H          7.00740        2.70792       -1.03503
H          7.93280        0.41431       -0.45641
H          4.51588        3.06806       -0.97139
H          2.98392        1.19733       -0.34820
H          2.86228       -0.98288        0.26950
H          5.85830       -2.57971        0.51618
