20
SEC-BUTYL_ACETATE.gamout	Energy:    -386.0472526
O          4.08572        2.35189        1.96980
C          2.81484        2.18569        1.26779
C          1.87665        3.26343        1.82534
C          2.32790        0.74888        1.45150
C          5.22153        2.04961        1.28128
C          0.55369        3.39254        1.06125
C          6.44287        2.25511        2.15493
O          5.23716        1.66511        0.12574
H          3.00965        2.36921        0.18832
H          1.68719        3.05483        2.90218
H          2.42667        4.22886        1.79247
H          2.18705        0.51431        2.52757
H          1.36110        0.59311        0.93066
H          3.05835        0.03462        1.02273
H         -0.05513        4.22871        1.46189
H          0.72741        3.59529       -0.01719
H         -0.06571        2.47398        1.13218
H          7.35681        2.10753        1.55227
H          6.43614        3.27010        2.60042
H          6.43111        1.53098        2.99541
