92
SQUALANE.gamout	Energy:   -1179.6708279
C         -2.10639        2.50781        0.90209
C          2.07710       -2.56542        0.93814
C         -1.70537        1.01523        1.01287
C          1.65925       -1.07547        1.00284
C         -3.64124        2.64790        0.74470
C          3.60888       -2.68563        0.73934
C         -0.19534        0.71503        0.96099
C          0.14599       -0.78771        0.98495
C         -4.17067        4.07071        0.47252
C          4.16030       -4.10760        0.51051
C         -6.28933        5.52256       -0.08496
C          6.29941       -5.53073       -0.05088
C         -5.69627        4.13079        0.24916
C          5.67945       -4.14168        0.24138
C         -7.78728        5.39243       -0.45977
C          7.77996       -5.37513       -0.48014
C         -1.57586        3.32753        2.08880
C          1.59531       -3.34602        2.17083
C         -8.47811        6.67338       -0.96891
C          8.49385       -6.65650       -0.95484
C         -6.06756        6.52715        1.05564
C          6.14247       -6.48801        1.13988
C         -9.92853        6.44734       -1.44104
C          9.92023       -6.40862       -1.48466
C        -10.66681        7.68634       -1.99494
C         10.67820       -7.65073       -2.00494
C        -12.02881        7.28561       -2.58374
C        -10.83961        8.79165       -0.94351
C         12.00697       -7.24060       -2.65893
C         10.91809       -8.69663       -0.90660
H         -1.63625        2.91254       -0.02734
H          1.58598       -3.01419        0.04030
H         -2.21027        0.45460        0.19312
H         -2.12958        0.60191        1.95889
H          2.13240       -0.54146        0.14726
H          2.10698       -0.62193        1.91925
H         -3.96846        1.98006       -0.08448
H         -4.13033        2.24363        1.66296
H          3.89644       -2.04588       -0.12578
H          4.11858       -2.23535        1.62438
H          0.23968        1.17905        0.04512
H          0.31521        1.20943        1.81827
H         -0.31486       -1.28757        0.10103
H         -0.33629       -1.25070        1.87557
H         -3.65380        4.49119       -0.42170
H         -3.89314        4.73401        1.32057
H          3.62661       -4.57778       -0.34832
H          3.92382       -4.73916        1.39461
H         -5.75434        5.90705       -0.98776
H          5.74725       -5.96965       -0.91757
H         -5.96107        3.43261       -0.57804
H         -6.21619        3.73122        1.15258
H          5.89884       -3.47363       -0.62320
H          6.21823       -3.69101        1.10890
H         -7.88006        4.60295       -1.23974
H         -8.34411        5.00144        0.42531
H          7.82243       -4.61847       -1.29633
H          8.35309       -4.92977        0.36774
H         -2.03751        2.99168        3.04407
H         -1.79469        4.40770        1.97311
H         -0.47688        3.23127        2.19543
H          2.07869       -2.96773        3.09905
H          1.82830       -4.42637        2.08887
H          0.49845       -3.26216        2.30640
H         -7.88551        7.10117       -1.81147
H         -8.46301        7.44463       -0.16766
H          7.88889       -7.14022       -1.75719
H          8.52908       -7.39036       -0.11955
H         -6.56122        6.18532        1.99244
H         -6.47700        7.52691        0.80742
H         -4.99065        6.66722        1.27644
H          6.65648       -6.09017        2.04299
H          6.57176       -7.48706        0.92369
H          5.07757       -6.64657        1.40266
H         -9.92556        5.66294       -2.23266
H        -10.53041        6.02253       -0.60191
H          9.86604       -5.66217       -2.31054
H         10.53693       -5.92794       -0.68778
H        -10.04946        8.10246       -2.82750
H         10.04717       -8.12545       -2.79446
H        -11.92092        6.50343       -3.36345
H        -12.54089        8.15533       -3.04443
H        -12.70168        6.87995       -1.79595
H        -11.40000        9.65516       -1.35809
H        -11.40757        8.42065       -0.06118
H         -9.86666        9.17755       -0.57791
H         11.84876       -6.50161       -3.47174
H         12.52890       -8.11737       -3.09440
H         12.69399       -6.77710       -1.91670
H         11.49023       -9.56433       -1.29615
H         11.50227       -8.26529       -0.06355
H          9.96865       -9.09006       -0.49072
