18
TEREPHTHALIC_ACID.gamout	Energy:    -608.9701404
O          1.46899        4.23224        0.17419
C          2.54289        4.90999       -0.31748
O          2.47156        6.06976       -0.68998
C          3.78962        4.07989       -0.34401
C          4.97047        4.67964       -0.83504
C          3.81280        2.73955        0.10062
C          6.16151        3.94809       -0.88147
C          5.00631        2.00657        0.05438
C          6.18650        2.60746       -0.43687
C          7.48817        1.86862       -0.50652
O          7.39135        0.58976       -0.04985
O          8.53361        2.34060       -0.92227
H          0.72245        4.87034        0.14280
H          4.92388        5.72524       -1.17523
H          2.88941        2.28010        0.48132
H          7.09437        4.39299       -1.25949
H          5.03438        0.96276        0.39867
H          8.29336        0.21126       -0.14278
