21
TERT-BUTYL_ETHYL_ETHER.gamout	Energy:    -312.0487002
O          0.48930       -0.49903       -0.01803
C         -0.85312        0.03607        0.00977
C         -1.12561        0.94261       -1.20896
C         -1.74169       -1.21649       -0.05317
C         -1.10741        0.80041        1.32630
C          1.57811        0.40604       -0.11651
C          2.86649       -0.39519        0.03600
H         -0.85681        0.41880       -2.14954
H         -2.20080        1.21164       -1.25930
H         -0.55124        1.89060       -1.15940
H         -1.50632       -1.89369        0.79291
H         -1.55633       -1.77075       -0.99556
H         -2.81656       -0.94794       -0.00360
H         -0.46615        1.70174        1.41526
H         -2.16219        1.14026        1.38627
H         -0.90571        0.14412        2.19776
H          1.57888        0.93708       -1.10104
H          1.52561        1.19822        0.67106
H          3.75400        0.26056       -0.07743
H          2.91157       -0.88191        1.03167
H          2.91711       -1.19229       -0.73396
