16
TERT-BUTYL_HYDROPEROXIDE.gamout	Energy:    -308.5732227
O          0.15187       -0.11634        0.76032
O          1.38950       -0.14264       -0.02769
C         -0.98419       -0.01116       -0.14071
C         -1.06461       -1.25553       -1.03967
C         -2.15724        0.04250        0.85139
C         -0.88554        1.28341       -0.96311
H         -1.10890       -2.17796       -0.42354
H         -1.96902       -1.22587       -1.68155
H         -0.17682       -1.31233       -1.70078
H         -2.05542        0.91640        1.52560
H         -2.19061       -0.87613        1.47156
H         -3.11533        0.13067        0.30058
H          0.00757        1.25774       -1.61790
H         -1.78378        1.41831       -1.60057
H         -0.79525        2.15923       -0.28909
H          1.66461       -1.06994        0.13569
