24
TERT-BUTYLBENZENE.gamout	Energy:    -389.2056857
C          5.20238        0.92028        2.47381
C          3.86566        1.18296        2.12764
C          5.92487        1.83297        3.25981
C          3.20903        2.36305        2.54884
C          3.95209        3.26427        3.34612
C          1.76606        2.68564        2.09222
C          5.28940        3.00716        3.69580
C          1.03145        3.57821        3.11980
C          1.84817        3.43643        0.73586
C          0.93472        1.39357        1.90563
H          5.67948       -0.01077        2.12707
H          3.33082        0.44480        1.51127
H          6.97200        1.62832        3.53410
H          3.48590        4.19148        3.71168
H          5.83531        3.73253        4.32071
H          0.99717        3.09925        4.12070
H         -0.01342        3.75570        2.78950
H          1.50703        4.57344        3.23447
H          0.83094        3.68541        0.36318
H          2.35449        2.81688       -0.03323
H          2.41983        4.38235        0.83560
H          0.90751        0.79337        2.83889
H          1.33291        0.74754        1.09710
H         -0.11034        1.64849        1.63083
