49
TESTOSTERONE.gamout	Energy:    -890.6717995
O         -2.78670        2.85552        2.24772
O          2.39205        5.55526       -7.06580
C         -0.31438        2.49956       -0.47017
C         -1.75847        2.88282       -0.06587
C         -0.09430        2.37766       -1.99024
C         -0.47837        3.72853       -2.67000
C         -0.24581        3.75854       -4.23383
C         -2.09394        4.23287       -0.71757
C         -1.89448        4.19383       -2.24684
C         -1.59318        2.91095        1.48277
C          0.03138        1.32366        0.47109
C          1.35396        2.00334       -2.33915
C         -0.71255        1.67368        1.79426
C          1.16680        3.25694       -4.54214
C          1.60150        1.98533       -3.85700
C         -2.81375        1.82711       -0.43409
C         -0.40164        5.21423       -4.75150
C         -1.24910        2.83366       -4.96773
C          0.15064        5.45226       -6.16143
C          1.99379        3.88248       -5.42869
C          1.60681        5.02498       -6.28100
H          0.31816        3.35848       -0.13534
H         -0.76693        1.57401       -2.37344
H          0.24130        4.47682       -2.25765
H         -1.43053        5.01414       -0.28092
H         -3.13896        4.53741       -0.49229
H         -2.65680        3.52094       -2.69511
H         -2.10209        5.20200       -2.65904
H         -1.01830        3.83918        1.73145
H          1.12323        1.21105        0.62029
H         -0.33486        0.36045        0.05452
H          1.61449        1.01135       -1.91572
H          2.04501        2.73792       -1.86498
H         -0.01349        1.88212        2.62824
H         -1.37528        0.85147        2.13542
H          1.02583        1.13897       -4.30198
H          2.66699        1.77955       -4.07946
H         -2.56401        0.82588       -0.03296
H         -3.78898        2.11439        0.00465
H         -2.94343        1.72418       -1.52822
H          0.13318        5.89091       -4.04818
H         -1.46829        5.51085       -4.71898
H         -1.21552        1.79490       -4.58545
H         -2.28608        3.20453       -4.85019
H         -1.02422        2.79109       -6.05147
H         -0.42513        4.88031       -6.92601
H          0.07740        6.51705       -6.45505
H          3.01167        3.49751       -5.60297
H         -3.25034        3.70479        2.12544
