29
TETRAETHYLSILANE.gamout	Energy:    -606.1064438
Si        -0.54896       -1.61346        0.04450
C          1.28242       -1.33990       -0.43633
C         -1.44352        0.07321        0.18693
C         -0.67051       -2.43938        1.76587
C         -1.36744       -2.78220       -1.23145
C          2.10422       -0.47736        0.54014
C         -1.37653        1.02275       -1.02322
C          0.02347       -3.80464        1.92443
C         -1.33547       -2.37536       -2.71663
H          1.30550       -0.88935       -1.45482
H          1.75632       -2.34131       -0.55537
H         -1.00764        0.57687        1.08061
H         -2.50421       -0.12856        0.46265
H         -1.75380       -2.53218        2.01130
H         -0.26764       -1.71762        2.51283
H         -2.41844       -2.95226       -0.90149
H         -0.86586       -3.77049       -1.11122
H          3.15665       -0.35393        0.20505
H          1.67743        0.54235        0.65091
H          2.13720       -0.92518        1.55617
H         -1.87347        1.99541       -0.81704
H         -0.32798        1.24955       -1.31177
H         -1.86929        0.59055       -1.91888
H         -0.39320       -4.56295        1.22793
H         -0.08968       -4.21337        2.95174
H          1.11336       -3.74082        1.71824
H         -0.29804       -2.21215       -3.07837
H         -1.78597       -3.15531       -3.36780
H         -1.89543       -1.43529       -2.90314
