6
TETRAFLUOROHYDRAZINE.gamout	Energy:    -508.1886187
N          2.29506        1.00793       -0.44701
N          3.60594        1.09437        0.44701
F          1.56890        2.05033        0.10608
F          1.71216       -0.12082        0.10608
F          4.18883        2.22312       -0.10607
F          4.33210        0.05197       -0.10608
