5
TETRAFLUOROMETHANE.gamout	Energy:    -437.1557306
F          1.30687        0.00112        0.24375
C          1.09306        1.26650        0.61331
F          0.91823        1.32061        1.93617
F          0.00102        1.73067        0.00052
F          2.14611        2.01400        0.27270
