16
TETRAHYDROPYRAN.gamout	Energy:    -271.5636351
C          1.57155        2.77396        2.35922
C          0.99580        1.89878        1.23090
C          3.03476        3.14428        2.05293
C          1.93673        0.72155        0.93780
C          3.84223        1.88470        1.70543
O          3.25693        1.15712        0.63134
H          1.53011        2.20724        3.31846
H          0.95582        3.68682        2.50870
H          0.87823        2.50379        0.30427
H         -0.01341        1.51573        1.49864
H          3.50347        3.66884        2.91427
H          3.07398        3.84012        1.18548
H          1.59008        0.13341        0.06277
H          1.95902        0.03183        1.82295
H          3.92442        1.22939        2.61305
H          4.87310        2.14085        1.38338
