31
TETRAETHYLENE_GLYCOL.gamout	Energy:    -691.2178104
C          5.14985        3.49504        1.00335
O          4.74707        4.29858        2.09051
C          3.78003        5.26190        1.73298
C          6.24422        2.55672        1.48962
C          3.33109        6.02647        2.96235
O          6.62069        1.74510        0.38675
O          2.49311        5.20584        3.74629
C          7.58476        0.75456        0.67117
C          2.01977        5.83969        4.91393
C          9.03137        1.25754        0.74299
C          1.06741        4.87838        5.61073
O          9.32658        2.08792        1.85862
O          0.57891        5.52796        6.77400
H          5.54571        4.11724        0.16010
H          4.29480        2.89920        0.59335
H          2.88520        4.77986        1.26316
H          4.19512        5.98681        0.98495
H          5.85401        1.92995        2.33192
H          7.10490        3.14489        1.87960
H          2.78761        6.95012        2.63348
H          4.23060        6.35817        3.54030
H          7.52022        0.01214       -0.15564
H          7.32863        0.20835        1.61953
H          1.47663        6.78993        4.67278
H          2.85472        6.11084        5.60911
H          9.23574        1.87246       -0.15949
H          9.70908        0.36554        0.69317
H          0.25346        4.60908        4.89203
H          1.62430        3.93623        5.84174
H          9.17145        1.55927        2.66465
H         -0.02915        4.91337        7.22130
