18
TOS-1.gamout	Energy:    -894.3851166
O         -0.30651       -1.12788       -0.52989
S          0.32658       -1.08033        0.83201
O         -0.35467       -0.16113        1.80816
O          0.71124       -2.42252        1.39030
C          1.94861       -0.26515        0.50371
C          2.07207        1.13549        0.56540
C          3.29701        1.75042        0.26069
C          4.42876        0.98654       -0.11057
C          4.28866       -0.41832       -0.15868
C          3.06544       -1.03990        0.14651
C          5.74863        1.65730       -0.43203
H          5.65535        2.37478       -1.27744
H          6.52390        0.91339       -0.71064
H          6.14038        2.23812        0.43319
H          1.18991        1.71795        0.87640
H          3.38450        2.85098        0.31592
H          2.95138       -2.13569        0.13386
H          5.16294       -1.03554       -0.43470
