15
TRANS-1,2-DIMETHYLCYCLOPROPANE.gamout	Energy:    -196.3771647
C          1.88748        1.99324        2.90966
C          0.91685        1.64427        4.02246
C          2.00700        1.12863        1.66832
C          1.39003        2.51377        1.57264
C          3.35936        0.83277        1.04692
H          2.83924        2.43436        3.26077
H          0.63577        2.54135        4.61551
H         -0.02212        1.21004        3.61732
H          1.35120        0.90013        4.72455
H          1.28693        0.29098        1.61661
H          0.29982        2.59015        1.42278
H          1.97009        3.30561        1.06898
H          3.26944        0.59081       -0.03414
H          4.03782        1.70791        1.13458
H          3.85818       -0.02677        1.54444
