16
TRANS,TRANS-2,4-HEXADIENE.gamout	Energy:    -234.4501761
C          0.73408        3.01991        0.66594
C          1.96705        2.45117        1.30411
C          2.13834        2.23483        2.63401
C          3.34262        1.68135        3.23628
C          3.51383        1.46483        4.56616
C          4.74678        0.89602        5.20431
H          0.96007        3.95422        0.10411
H         -0.04836        3.25462        1.41682
H          0.29575        2.31383       -0.07502
H          2.80025        2.18938        0.62320
H          1.31266        2.49196        3.32588
H          4.16833        1.42431        2.54442
H          2.68060        1.72651        5.24706
H          5.52924        0.66138        4.45344
H          5.18511        1.60204        5.94532
H          4.52076       -0.03834        5.76605
