36
TRANS-2,2,4,6,6-PENTAMETHYL-3-HEPTENE.gamout	Energy:    -471.3549718
C          2.49893       -0.19707        0.03579
C          1.36735        0.34653       -0.90342
C         -2.46547       -0.28277       -0.03261
C         -0.00687        0.62896       -0.30797
C         -1.00036       -0.28160       -0.48987
C          3.74825       -0.43215       -0.84464
C          2.86370        0.80526        1.15294
C          2.06892       -1.53483        0.67258
C         -3.03419       -1.70436       -0.26314
C         -3.28857        0.71778       -0.88678
C         -2.62034        0.05127        1.47158
C         -0.17131        1.95167        0.42040
H          1.24958       -0.39498       -1.72363
H          1.74885        1.27969       -1.38022
H         -0.71836       -1.17079       -1.08550
H          4.09200        0.51192       -1.31916
H          4.59049       -0.83515       -0.24295
H          3.53697       -1.16114       -1.65581
H          2.03491        0.94070        1.87695
H          3.74129        0.43939        1.72789
H          3.12689        1.80272        0.74043
H          2.87996       -1.94877        1.30895
H          1.82758       -2.29254       -0.10339
H          1.16735       -1.41012        1.30770
H         -2.97290       -1.99498       -1.33333
H         -4.09957       -1.75841        0.04495
H         -2.47194       -2.46054        0.32485
H         -4.35716        0.71188       -0.57986
H         -2.91382        1.75655       -0.78079
H         -3.23942        0.45474       -1.96392
H         -3.68287       -0.05220        1.78169
H         -2.30621        1.08418        1.71626
H         -2.01935       -0.64287        2.09586
H         -1.19439        2.36420        0.32275
H          0.04262        1.86783        1.50817
H          0.53299        2.70957        0.01905
