6
TRANS-1,2-DICHLOROETHYLENE.gamout	Energy:    -997.5245523
C          2.30592        1.70178        1.28396
C          1.62531        0.69658        0.70270
H          1.85099        2.41095        1.99225
Cl         3.99317        1.97300        0.96082
H          2.08024       -0.01260       -0.00559
Cl        -0.06195        0.42538        1.02580
