15
TRANS-2-PENTENE.gamout	Energy:    -196.3844038
C          1.74213        2.04835        0.99601
C          1.05843        1.02385        1.92144
C          3.24428        1.92544        0.97900
C          4.11716        2.88548        1.34802
C          5.61474        2.75765        1.33863
H          1.35203        1.90808       -0.03978
H          1.45661        3.08036        1.29719
H          1.31765       -0.01771        1.63462
H          1.37440        1.16507        2.97640
H         -0.04715        1.11560        1.88076
H          3.64662        0.94798        0.64313
H          3.71076        3.85923        1.68720
H          6.08458        3.51895        0.67638
H          6.04375        2.92391        2.35220
H          5.94187        1.75601        0.99111
