22
TRANS-4-METHYLCYCLOHEXANOL.gamout	Energy:    -350.1429687
C          0.08215        0.76706        1.29232
C          0.98576        0.82195        0.05359
C          1.70168        2.18340       -0.08263
C          2.02307       -0.32216        0.05153
C          2.63872        2.24040       -1.30014
C          2.95710       -0.25916       -1.16780
C          3.66451        1.10267       -1.28202
O          4.44592        1.20673       -2.47050
H         -0.68723        1.56810        1.27811
H         -0.44951       -0.20520        1.36700
H          0.67629        0.89444        2.22390
H          0.34402        0.69115       -0.85117
H          0.95159        3.00199       -0.14364
H          2.28803        2.37197        0.84809
H          1.50573       -1.30593        0.08675
H          2.62731       -0.25690        0.98744
H          3.17349        3.21280       -1.34740
H          2.05459        2.15196       -2.24419
H          3.71506       -1.07432       -1.11598
H          2.38017       -0.41928       -2.10706
H          4.31412        1.23580       -0.37503
H          5.08362        0.46866       -2.45966
