27
TRANS-1-METHYL-3-ETHYLCYCLOHEXANE.gamout	Energy:    -353.5432409
C         -0.07051        1.64035        0.01402
C          0.10842        3.16755       -0.03429
C          1.28000        0.89193        0.02390
C          0.98528        3.59450       -1.22576
C          2.36135        2.88205       -1.24474
C          2.14668        1.35023       -1.16993
C          3.34381        3.38853       -0.16069
C          1.08669       -0.63139        0.02735
C          3.80409        4.84111       -0.34081
H         -0.67259        1.34662        0.90252
H         -0.65125        1.30903       -0.87986
H         -0.88267        3.66737       -0.09759
H          0.56577        3.51664        0.92002
H          1.81069        1.16887        0.96582
H          1.11676        4.69828       -1.23526
H          0.44985        3.34211       -2.16950
H          2.83965        3.10204       -2.22792
H          3.13226        0.83239       -1.14070
H          1.64732        1.01147       -2.10834
H          2.89726        3.26791        0.85171
H          4.23767        2.72445       -0.17341
H          2.05843       -1.16831        0.07018
H          0.48187       -0.96368        0.89786
H          0.56023       -0.96850       -0.89264
H          4.55781        5.12338        0.42375
H          4.26880        4.99777       -1.33862
H          2.96539        5.56356       -0.25179
