23
TRI-(ETHYL)-AMMONIUM+1.gamout	Energy:    -292.5707717
N         -2.82662        0.37014       -0.05353
C         -1.30233        0.42515       -0.17266
H         -3.16723        0.16194       -1.01153
C         -3.43670        1.71817        0.32755
C         -3.33823       -0.75900        0.83376
H         -2.78851        2.48998       -0.13359
H         -3.34226        1.80959        1.42732
C         -4.87910        1.87341       -0.14052
C         -2.94614       -2.14763        0.34770
H         -4.43936       -0.64383        0.85899
H         -2.95882       -0.54687        1.85256
H         -1.09625        1.23051       -0.90639
H         -0.99657       -0.53215       -0.63917
C         -0.57032        0.66504        1.13969
H         -4.97013        1.78348       -1.24360
H         -5.22913        2.88938        0.13070
H         -5.57602        1.15609        0.33679
H         -0.85106        1.62068        1.62569
H          0.51421        0.72437        0.91807
H         -0.70372       -0.16123        1.86556
H         -3.27822       -2.33979       -0.69432
H         -3.45023       -2.89718        0.99020
H         -1.85807       -2.34324        0.41913
