29
TRIACETIN.gamout	Energy:    -802.1901324
C         -1.30078        0.77844        1.54431
O         -1.32489        1.29982        2.89709
C         -2.22022        1.62915        0.66339
C          0.17500        0.81588        1.12036
C         -2.16777        0.70359        3.79587
O         -2.87324       -0.25276        3.53839
C         -2.06871        1.39272        5.13955
O         -3.57162        1.57796        1.14999
O          0.38320        0.07004       -0.09187
C         -4.33609        0.52897        0.70610
C         -5.65455        0.48914        1.43938
O         -3.96105       -0.25772       -0.14204
C          0.47766        0.78262       -1.25729
C          0.69505       -0.13572       -2.43899
O          0.38445        1.99448       -1.31567
H         -1.66734       -0.26930        1.55512
H         -2.17973        1.26146       -0.38128
H         -1.91840        2.69398        0.69896
H          0.77883        0.31633        1.90314
H          0.52423        1.86031        0.98573
H         -2.86533        1.01883        5.80694
H         -2.14608        2.49127        5.01900
H         -1.07899        1.18160        5.59528
H         -6.06157        1.50739        1.59200
H         -5.47002        0.04529        2.44041
H         -6.37152       -0.14463        0.88731
H          1.55605        0.23457       -3.02968
H         -0.19756       -0.08314       -3.09544
H          0.86144       -1.18276       -2.12854
