5
TRICHLOROFLUOROMETHANE.gamout	Energy:   -1518.1187766
Cl         1.73901        2.17417        2.66904
C          1.24212        1.13935        1.29187
Cl         0.00670       -0.04746        1.82146
Cl         0.60084        2.14941       -0.04351
F          2.31655        0.47015        0.84659
