7
TRICHLOROACETYL_CHLORIDE.gamout	Energy:   -1991.7016331
Cl         0.94591        0.70264       -0.86405
Cl        -1.97341        0.98001       -0.80689
Cl        -0.38058        1.45228        1.64229
Cl        -2.11000       -1.33296        1.51622
O          0.09328       -1.88009        0.18763
C         -0.51823        0.49224        0.12886
C         -0.66570       -1.02139        0.51638
