6
TRICHLOROETHYLENE.gamout	Energy:   -1457.0194827
C          1.37654        1.09631        0.05668
C          2.60716        1.65948        0.09954
Cl         4.03090        0.65708        0.06606
Cl         2.88252        3.36566        0.18837
Cl        -0.09373        2.00335        0.08510
H          1.26220        0.00424        0.00056
