22
TRIETHYLALUMINUM.gamout	Energy:    -479.8579724
Al         2.07330       -1.11862       -0.29216
C          4.00995       -0.67139       -0.16448
C          0.71351        0.29371       -0.64956
C          1.50164       -3.01276       -0.05916
C          4.50430        0.60653       -0.87305
C          0.12300        0.92071        0.63685
C          2.30011       -3.89588        0.92170
H          4.25294       -0.61455        0.92602
H          4.59402       -1.55523       -0.51473
H          1.15994        1.09550       -1.28104
H         -0.11204       -0.14181       -1.25891
H          0.41489       -3.03948        0.18680
H          1.55813       -3.45681       -1.08489
H          5.58702        0.79805       -0.70283
H          4.35725        0.54987       -1.97339
H          3.96013        1.51281       -0.52940
H          0.90350        1.41417        1.25647
H         -0.64428        1.69764        0.41970
H         -0.37131        0.16324        1.28425
H          1.94956       -4.95203        0.92845
H          3.38280       -3.91952        0.67132
H          2.22470       -3.53002        1.96880
