26
TRIETHYL_ORTHOFORMATE.gamout	Energy:    -501.6576539
O          1.35209       -0.14841       -0.03689
O         -0.39050        1.29868       -0.13733
O         -0.58316       -0.62659        1.04747
C         -0.03716       -0.04979       -0.09961
C          1.86588       -1.47564       -0.17759
C         -0.09605        1.95958       -1.37017
C         -2.00280       -0.78714        1.01560
C          3.38308       -1.41453       -0.09328
C         -0.57034        3.40139       -1.27095
C         -2.44011       -1.47943        2.29757
H         -0.42764       -0.58085       -1.02403
H          1.53589       -1.90613       -1.15710
H          1.44911       -2.12678        0.62413
H         -0.60665        1.43174       -2.21539
H          0.99889        1.91450       -1.57012
H         -2.29734       -1.38925        0.11853
H         -2.49152        0.20861        0.91400
H          3.81825       -2.43058       -0.18422
H          3.80167       -0.78117       -0.90208
H          3.69777       -0.98384        0.87899
H         -0.35900        3.94305       -2.21558
H         -1.66177        3.44661       -1.07815
H         -0.05114        3.92672       -0.44391
H         -3.54034       -1.62054        2.30547
H         -1.95879       -2.47402        2.39484
H         -2.16060       -0.87246        3.18253
