25
TRIETHANOLAMINE.gamout	Energy:    -517.6512863
O          0.23060       59.69808       -0.43602
C          1.47351       59.06002       -0.18136
C          2.47406       60.15567        0.19686
N          3.82364       59.64845        0.42419
C          4.89272       60.61164        0.18481
C          3.98092       58.84968        1.64301
O          7.25856       60.92709       -0.38439
C          6.23765       59.96174       -0.18651
O          4.35148       56.59682        2.56749
C          4.27910       57.36199        1.37357
H         -0.42091       59.00627       -0.64899
H          1.39312       58.31292        0.64830
H          1.87057       58.51443       -1.07429
H          2.50490       60.87553       -0.64825
H          2.06244       60.71956        1.07691
H          4.58199       61.25576       -0.66795
H          5.07171       61.30374        1.05290
H          3.06406       58.90344        2.27542
H          4.80207       59.27067        2.27568
H          7.00829       61.45895       -1.16333
H          6.59251       59.31083        0.64153
H          6.08459       59.29705       -1.07317
H          5.12686       56.91202        3.06937
H          5.20338       57.27210        0.75035
H          3.45380       56.92716        0.77100
