5
TRIFLUOROMETHANE.gamout	Energy:    -337.9767392
F         -1.26314       -0.02604        0.10274
C          0.00002       -0.00002       -0.36364
F          0.60901        1.10683        0.10277
F          0.65414       -1.08077        0.10276
H         -0.00056       -0.00000       -1.47719
