14
TRIMETHYLSILANE.gamout	Energy:    -409.6990058
Si         0.00060       -0.00044       -0.44442
C         -1.41061        1.12245        0.15044
C          1.67817        0.66230        0.15003
C         -0.26852       -1.78418        0.15012
H          0.00136       -0.00031       -1.95620
H         -1.45683        1.15875        1.26002
H         -1.28031        2.16373       -0.21402
H         -2.39525        0.76150       -0.21553
H          1.73537        0.68587        1.25949
H          2.51481        0.02971       -0.21551
H          1.85400        1.69533       -0.21804
H         -1.23521       -2.18831       -0.21838
H          0.53619       -2.45698       -0.21538
H         -0.27929       -1.84535        1.25948
