14
TRIMETHYLCHLOROSILANE.gamout	Energy:    -869.2592114
Cl         2.02735       -0.00187       -0.00125
Si        -0.09047        0.00024        0.00071
C         -0.65829       -1.37304       -1.16513
C         -0.65591       -0.32257        1.77416
C         -0.65487        1.69689       -0.60845
H         -0.28644       -2.36386       -0.83137
H         -1.76836       -1.41704       -1.20240
H         -0.28820       -1.19947       -2.19707
H         -0.28315       -1.30198        2.13963
H         -0.28262        0.46309        2.46340
H         -1.76570       -0.33381        1.83503
H         -1.76470        1.75614       -0.62911
H         -0.28163        2.50505        0.05434
H         -0.28121        1.89681       -1.63413
