8
UREA.gamout	Energy:    -225.1084430
N          1.21611        0.59990        0.00463
C          2.32574        1.42659       -0.04432
N          3.54296        0.76966        0.01644
O          2.23683        2.64902       -0.13455
H          0.30692        1.05491       -0.03811
H          1.25475       -0.41455        0.07936
H          3.65190       -0.23961        0.09159
H          4.37637        1.35257       -0.01751
