20
VANILLIC_ACID.gamout	Energy:    -610.1320412
O          1.48115        0.28141        0.03583
O          1.76480        2.89464       -0.04937
O         -3.52050       -0.58684        0.37620
O         -4.49901        1.45501        0.38721
C          0.32876        1.00454        0.09202
C         -2.09732        1.31755        0.23994
C         -0.96306        0.46800        0.18906
C          0.49365        2.42505        0.04487
C         -1.92875        2.71348        0.19349
C         -0.63950        3.25688        0.09646
C         -3.48073        0.77994        0.34046
C          1.38495       -1.13301        0.07643
H         -1.11719       -0.61792        0.22624
H         -2.81915        3.35772        0.23391
H         -0.49830        4.35081        0.05904
H          2.42135       -1.51612        0.02016
H          0.91708       -1.49105        1.02215
H          0.80247       -1.53485       -0.78412
H          1.72862        3.87049       -0.07250
H         -4.47524       -0.80743        0.44137
