15
VINYL_PROPIONATE.gamout	Energy:    -345.5265622
O          4.33714        2.41461        1.33231
C          3.43732        1.38218        1.17036
C          2.02399        1.94066        1.16235
O          3.74212        0.21368        1.05483
C          5.71225        2.24416        1.38452
C          0.95501        0.86255        0.99026
C          6.44432        1.11885        1.29665
H          1.88943        2.51321        2.10690
H          1.97507        2.70657        0.35661
H          6.17339        3.23605        1.52010
H         -0.05845        1.31153        0.98935
H          1.09168        0.31214        0.03781
H          1.00301        0.11617        1.80845
H          6.00297        0.12498        1.16280
H          7.53793        1.22364        1.36551
