12
VINYL_ACETATE.gamout	Energy:    -306.2471795
O          2.29466        2.67285        0.58914
C          1.20198        1.84886        0.38568
C          2.48778        3.71252       -0.29934
C          1.19090        0.74524        1.41345
O          0.40200        2.00751       -0.51167
C          3.53257        4.54216       -0.16007
H          1.72278        3.77958       -1.08958
H          1.53793        1.11325        2.39771
H          1.89041       -0.05599        1.09293
H          0.17505        0.31691        1.48515
H          3.66639        5.36413       -0.87720
H          4.26376        4.42236        0.65391
