9
VINYL_FORMATE.gamout	Energy:    -266.9471929
C         52.05276       11.01797       -0.00000
O         50.85980       10.32336        0.00000
C         49.68676       11.03361        0.00000
C         53.23270       10.38117       -0.00000
O         48.61099       10.49925       -0.00000
H         51.95393       12.11993        0.00000
H         49.86337       12.14688       -0.00000
H         54.16428       10.96375        0.00000
H         53.28979        9.28242        0.00000
