98
ZEAXANTHIN.gamout	Energy:   -1707.0457527
O         14.35751       -3.07623       -0.32613
O        -15.08806        1.53554        0.29925
C         10.73348       -1.93425        0.22815
C        -12.43436       -1.22003        0.63570
C         12.04740       -2.72011        0.43461
C        -13.82482       -0.57305        0.44215
C         13.15168       -2.34596       -0.54836
C        -13.79451        0.95286        0.46437
C         11.00844       -0.41636        0.03141
C        -11.35324       -0.47814       -0.19209
C         13.48042       -0.87260       -0.36467
C        -12.93680        1.43368       -0.69446
C         12.28554        0.04431       -0.22697
C        -11.62067        0.70604       -0.84018
C          9.86208       -2.20042        1.48025
C          9.98798       -2.48585       -1.01094
C        -12.04932       -1.18766        2.13477
C        -12.55206       -2.70325        0.20908
C          9.80947        0.41736        0.08913
C        -10.03630       -1.12863       -0.24124
C         12.62999        1.50536       -0.40256
C        -10.67606        1.39431       -1.79845
C          9.60578        1.78346        0.08258
C         -8.80657       -0.51647       -0.17023
C          8.32323        2.47348        0.13434
C         -7.51560       -1.17457       -0.22065
C          8.37174        3.98438        0.25312
C         -7.48127       -2.67191       -0.39172
C          7.09827        1.81950        0.07964
C         -6.36088       -0.40511       -0.11079
C          5.79804        2.40870        0.15233
C         -5.00062       -0.85176       -0.14466
C          4.62733        1.66295        0.08131
C         -3.89695       -0.01722       -0.04096
C          3.27216        2.13370        0.15868
C         -2.51450       -0.41675       -0.08444
C          3.01328        3.60901        0.34235
C         -2.19240       -1.88132       -0.25929
C          2.23792        1.19630        0.05987
C         -1.52071        0.56035        0.02982
C          0.82930        1.40733        0.10901
C         -0.10659        0.38282       -0.00718
H         12.43679       -2.54378        1.46182
H         11.82422       -3.80734        0.36404
H        -14.50724       -0.95595        1.23234
H        -14.26278       -0.88501       -0.53202
H         12.78586       -2.50702       -1.59364
H        -13.33429        1.30004        1.42403
H         14.13033       -0.79185        0.54128
H         14.11650       -0.51600       -1.20329
H        -13.54357        1.32679       -1.62619
H        -12.75069        2.52658       -0.60175
H          9.74778       -3.29514        1.62707
H          8.84242       -1.77811        1.39226
H         10.32789       -1.78313        2.39652
H         10.59934       -2.39186       -1.93049
H          9.73840       -3.55797       -0.86808
H          9.04059       -1.93887       -1.18665
H        -12.04441       -0.15398        2.53431
H        -11.03660       -1.60827        2.29095
H        -12.76684       -1.78623        2.73411
H        -13.41387       -3.17235        0.72833
H        -11.65486       -3.29286        0.48105
H        -12.71905       -2.80257       -0.88300
H          8.88410       -0.17740        0.16345
H        -10.04815       -2.23063       -0.28340
H         12.04496        1.97178       -1.22565
H         12.42773        2.10159        0.51422
H         13.70311        1.62586       -0.64522
H        -11.24074        1.74044       -2.69176
H         -9.85353        0.73771       -2.13488
H        -10.22635        2.30658       -1.34596
H         14.15539       -4.02049       -0.46375
H        -15.63700        1.24726        1.05234
H         10.46695        2.46438        0.06221
H         -8.77609        0.57838       -0.03390
H          9.41563        4.35440        0.25225
H          7.84232        4.48496       -0.58597
H          7.89878        4.34330        1.19322
H         -8.03953       -3.17789        0.42595
H         -7.96724       -2.98061       -1.34301
H         -6.45386       -3.07817       -0.39293
H          7.10899        0.72133       -0.03594
H         -6.50853        0.68354        0.01405
H          5.72455        3.50290        0.27771
H         -4.81835       -1.93335       -0.26403
H          4.74210        0.57038       -0.04571
H         -4.08365        1.06605        0.08051
H          3.48159        3.98651        1.27718
H          1.93463        3.84282        0.39342
H          3.44398        4.20134       -0.49401
H         -2.63021       -2.49001        0.56156
H         -2.61761       -2.27418       -1.20827
H         -1.10572       -2.07844       -0.27295
H          2.55792        0.14667       -0.07672
H         -1.87586        1.59918        0.16059
H          0.44885        2.43630        0.24629
H          0.28802       -0.64098       -0.14196
