27
1,1,3-TRIMETHYLCYCLOHEXANE.gamout	Energy:    -353.5691741
C         -0.27901       -1.18377        0.88614
C         -1.31166       -0.73684       -0.16221
C         -1.13859        0.76398       -0.45835
C          0.29196        1.17960       -0.87972
C          1.30193        0.64911        0.16549
C          1.15718       -0.85073        0.46088
H         -0.50164       -0.66153        1.84371
H         -0.38691       -2.26940        1.08741
H         -1.11144       -1.30303       -1.09906
C         -2.74319       -1.06209        0.28445
H         -1.85784        1.08175       -1.24197
H         -1.41112        1.33020        0.46021
C          0.62764        0.63701       -2.28320
C          0.37609        2.71497       -0.92476
H          2.33410        0.88167       -0.16939
H          1.14975        1.21056        1.11300
H          1.87358       -1.14924        1.25328
H          1.42461       -1.44719       -0.43700
H          0.14473        3.15847        0.06422
H         -0.34076        3.13047       -1.66029
H          1.39217        3.04377       -1.21646
H         -0.08910        1.02824       -3.03144
H          0.59590       -0.46672       -2.33476
H          1.64380        0.95691       -2.58621
H         -2.99840       -0.52285        1.22054
H         -2.85439       -2.14548        0.47872
H         -3.48683       -0.77530       -0.48487
