24
1,1,2-TRIMETHYLCYCLOPENTANE.gamout	Energy:    -314.2725049
C          0.69115        2.92847        1.29486
C          1.89431        2.09781        1.76799
C          1.42925        0.64406        1.99370
C          2.57769        2.63254        3.07037
C          3.06170        2.12432        0.74717
C          2.69944        4.16283        3.14099
C          3.97315        1.95669        3.04977
C          4.34338        1.77194        1.54774
H          0.97226        3.97012        1.05058
H         -0.10651        2.96035        2.06457
H          0.24897        2.48163        0.38168
H          2.25551       -0.01508        2.32087
H          1.01304        0.21762        1.05940
H          0.63740        0.59955        2.76745
H          1.99920        2.29590        3.95604
H          2.87812        1.43045       -0.09608
H          3.14591        3.13718        0.30491
H          3.24496        4.57646        2.26843
H          3.26080        4.45802        4.04908
H          1.71107        4.65732        3.18739
H          4.72534        2.55647        3.59654
H          3.92869        0.97659        3.56221
H          4.67126        0.73387        1.34752
H          5.18984        2.42107        1.25360
