11
1,1,1,2,3,3-HEXAFLUOROPROPANE.gamout	Energy:    -714.0788970
C         -1.55467        1.27303        0.01376
C         -0.19344        1.99817       -0.08064
F         -1.61279        0.58677        1.19117
H         -0.16497        2.74023        0.74563
F          2.15054        1.82896        0.18063
F         -1.75653        0.40451       -0.99294
F         -0.12388        2.66240       -1.28660
F         -2.56467        2.17148        0.00612
C          1.01763        1.06017        0.08334
F          1.15208        0.24264       -1.00212
H          0.93647        0.43293        0.99589
