8
1,1,2,2-TETRABROMOETHANE.gamout	Energy:  -10373.8366300
Br        -0.39558        1.75331        0.93260
C         -0.51038        0.56713       -0.61415
C          0.51037       -0.56714       -0.61415
Br         2.32631        0.17805       -0.82156
Br         0.39559       -1.75331        0.93260
Br        -2.32632       -0.17804       -0.82156
H         -0.35195        1.20365       -1.50266
H          0.35196       -1.20366       -1.50266
