8
1,1,2,2-TETRAFLUOROETHANE.gamout	Energy:    -476.4467283
C         -1.17069        2.10306       -0.09768
C          0.28856        1.60276       -0.13507
F         -1.44468        2.68238        1.10440
F         -2.00277        1.02442       -0.26786
H         -1.36736        2.83693       -0.90812
F          1.12365        2.69147       -0.14894
F          0.56181        0.85271        0.96895
H          0.47872        0.99116       -1.04300
