6
1,1-DICHLOROETHYLENE.gamout	Energy:    -997.5434584
C          0.96254        0.53310        0.51148
C          1.19938        1.74112        1.04426
Cl         2.75331        2.53224        0.95165
Cl        -0.02067        2.65916        1.89121
H          1.75879       -0.01009       -0.01312
H         -0.03090        0.07455        0.59473
