8
1,1-DIFLUORO-1,2-DICHLOROETHANE.gamout	Energy:   -1197.1215624
C          9.99878       18.04701       -0.03466
C         11.52339       18.03327       -0.07075
F          9.48399       19.15668       -0.61229
Cl         9.40333       16.59764       -0.95306
F          9.51896       17.97801        1.22814
Cl        12.21106       19.43413        0.82521
H         11.88732       17.10448        0.40205
H         11.86173       18.09012       -1.12001
