8
1,1-DICHLORO-2,2,2-TRIFLUOROETHANE.gamout	Energy:   -1296.2927036
C         41.01605       20.01402        0.02299
C         39.46814       20.01069        0.01735
F         38.94372       20.63090        1.08888
F         39.01653       20.62627       -1.10052
F         39.01793       18.73403       -0.00449
Cl        41.63277       21.69145       -0.04037
Cl        41.63108       19.11743        1.44331
H         41.36611       19.48951       -0.88434
