27
1,1-DIETHYLCYCLOPENTANE.gamout	Energy:    -353.5537836
C          2.80801       -1.04979        1.47656
C          3.38189        0.36381        1.80864
C          4.03811       -1.92812        1.13404
C          4.91578        0.24037        1.63377
C          5.24753       -1.26000        1.83967
C          5.20577       -1.63297        3.34794
C          6.61978       -1.67189        1.24868
C          6.27327       -0.99522        4.24705
C          6.80940       -1.53906       -0.26945
H          2.24898       -1.45822        2.34228
H          2.08650       -1.01672        0.63773
H          2.95935        1.14922        1.15360
H          3.12175        0.65674        2.84538
H          4.20271       -1.92048        0.03914
H          3.91130       -2.98700        1.43442
H          5.48083        0.90175        2.31701
H          5.20152        0.53134        0.60376
H          4.20469       -1.37768        3.75185
H          5.28225       -2.73896        3.42126
H          7.40623       -1.07073        1.74964
H          6.82282       -2.72548        1.54094
H          6.11741       -1.29026        5.30311
H          7.29755       -1.30815        3.96839
H          6.23824        0.11134        4.20788
H          7.84973       -1.79709       -0.54496
H          6.14340       -2.21517       -0.83989
H          6.62554       -0.50652       -0.62718
