24
1,1-DIMETHYLCYCLOHEXANE.gamout	Energy:    -314.2818459
C         -1.19186       -0.00015        1.54000
C         -0.91784        0.00024        0.02348
C         -0.11819        1.26065       -0.39101
C          1.33398        1.26687        0.11073
C          2.07592       -0.00022       -0.33859
C          1.33388       -1.26702        0.11102
C         -0.11801       -1.26015       -0.39093
C         -2.26980       -0.00017       -0.71063
H         -1.77750        0.89444        1.82944
H         -1.77684       -0.89542        1.82829
H         -0.26474       -0.00013        2.14280
H         -0.10957        1.31078       -1.50181
H         -0.65447        2.16846       -0.04473
H          1.85607        2.17425       -0.25593
H          1.35211        1.32878        1.21996
H          2.15257       -0.00030       -1.44812
H          3.11237       -0.00004        0.05278
H          1.85600       -2.17451       -0.25537
H          1.35174       -1.32855        1.22029
H         -0.65433       -2.16759       -0.04464
H         -0.10960       -1.30982       -1.50163
H         -2.86392        0.89510       -0.44121
H         -2.13058        0.00017       -1.80995
H         -2.86276       -0.89624       -0.44151
