11
1,2,3-TRICHLOROPROPANE.gamout	Energy:   -1497.5702657
C          3.57742        0.92141        1.28473
C          2.07167        0.98629        1.54318
C          1.68620        2.08679        2.51892
Cl         1.28701        1.25795       -0.08301
Cl         4.46125        0.37483        2.77772
Cl        -0.06060        2.02716        2.97596
H          3.98916        1.90735        1.00102
H          3.79984        0.18565        0.49410
H          1.70127        0.00597        1.89657
H          1.88409        3.08786        2.09310
H          2.26428        1.95861        3.45334
