21
1,2,3-TRIMETHYLBENZENE.gamout	Energy:    -349.9489551
C          3.41158        5.40681        0.97605
C          3.39895        3.89481        0.95256
C          2.13622        3.23919        1.00740
C          4.58389        3.11875        0.88356
C          0.86053        4.04640        1.08285
C          2.07643        1.83593        0.99321
C          5.97411        3.71514        0.83340
C          4.48533        1.71116        0.86989
C          3.24702        1.06671        0.92409
H          2.97247        5.79390        1.91959
H          4.42296        5.83197        0.88565
H          2.79711        5.82397        0.15232
H          0.73607        4.69942        0.19355
H         -0.02637        3.38930        1.14790
H          0.85113        4.71925        1.96592
H          1.09653        1.34195        1.03680
H          6.53423        3.48674        1.76373
H          6.55472        3.28177       -0.00528
H          5.97948        4.80956        0.70721
H          5.40892        1.11702        0.81455
H          3.19187       -0.03248        0.91208
