26
1,2,3-TRIMETHYLINDENE.gamout	Energy:    -465.3915933
C         -0.60755        0.29073       -1.52705
C         -0.52655        0.66868       -0.03357
C          2.08556        0.40627        0.33672
C          0.86525        1.08138        0.40591
C          3.24757        1.04307        0.82026
C         -1.37547        1.88173        0.34203
C         -2.85394        1.91709        0.10822
C          3.18361        2.33609        1.36520
C          0.79861        2.38569        0.95328
C         -0.59263        2.85610        0.90398
C          1.95571        3.01821        1.43537
C         -0.98707        4.20632        1.41955
H         -1.63959        0.01212       -1.81538
H         -0.28518        1.14528       -2.15317
H          0.04677       -0.57246       -1.75791
H         -0.86443       -0.20897        0.56766
H          2.15002       -0.60738       -0.08570
H          4.21127        0.51935        0.76814
H         -3.30016        2.85698        0.48033
H         -3.10530        1.82827       -0.97133
H         -3.36982        1.07227        0.61485
H          4.10099        2.81506        1.73613
H          1.90064        4.03004        1.85724
H         -2.06858        4.40909        1.31615
H         -0.72139        4.31423        2.49258
H         -0.43756        5.00295        0.87517
