13
1,2-PENTADIENE.gamout	Energy:    -195.1485509
C          0.82041        2.01783        1.01656
C          1.16164        3.49864        1.19567
C          1.96202        1.06103        1.30280
C          3.18179        1.39882        1.68030
C          4.40287        1.72581        2.05675
H          0.46302        1.83237       -0.02085
H         -0.03614        1.74225        1.67154
H          1.48374        3.71137        2.23405
H          0.28389        4.13372        0.97131
H          1.98730        3.80190        0.52225
H          1.74151       -0.01538        1.18034
H          4.67293        1.81960        3.12227
H          5.20203        1.91542        1.32022
