10
1,2-PROPYLENE_OXIDE.gamout	Energy:    -192.9800834
C          0.70861       -1.29703        0.28923
C         -0.74229       -1.02681        0.20220
H         -2.60026       -1.66593       -0.71167
H         -1.28328       -2.88754       -0.76253
H         -2.15572       -2.55774        0.77765
C         -1.75006       -2.09642       -0.14594
O          0.15612       -0.60364       -0.84412
H         -1.13069       -0.18499        0.80707
H          1.34585       -0.68450        0.95103
H          1.07958       -2.31561        0.07641
