8
1,2-DICHLOROTETRAFLUOROETHANE.gamout	Energy:   -1395.4539243
Cl        -2.16560        0.34412        0.00015
C         -0.59138       -0.51818        0.00002
C          0.59087        0.51726       -0.00004
Cl         2.16636       -0.34275       -0.00016
F          0.50114        1.29473       -1.09610
F          0.50049        1.29461        1.09599
F         -0.50163       -1.29565        1.09611
F         -0.50108       -1.29564       -1.09597
