21
1,3,5-TRIMETHYLBENZENE.gamout	Energy:    -349.9531396
C          1.90604        4.00742        2.07943
C          0.61077        4.78508        2.14776
C          3.05861        4.57880        1.50579
C          4.26598        3.86340        1.40728
C          5.50109        4.50988        0.82089
C          4.30442        2.54397        1.89980
C          3.17550        1.94294        2.48578
C          1.98419        2.68943        2.56455
C          3.23810        0.54094        3.04999
H          0.79821        5.86177        2.32302
H          0.04740        4.70116        1.19474
H         -0.04287        4.40659        2.95582
H          3.01163        5.61059        1.12394
H          6.03152        5.10928        1.59035
H          6.21311        3.75383        0.43995
H          5.24264        5.19719       -0.00747
H          5.24145        1.97069        1.83083
H          1.09278        2.23226        3.02110
H          2.35007       -0.05175        2.75436
H          4.14441        0.00619        2.71168
H          3.25369        0.56828        4.15947
