15
1,3,5-CYCLOHEPTATRIENE.gamout	Energy:    -271.3221199
C          3.09798        3.01768        2.93114
C          3.93931        1.76815        3.03066
C          1.65590        2.58204        3.02790
C          3.94991        0.84178        2.02808
C          1.06328        1.86566        2.02775
C          3.05115        0.82290        0.89638
C          1.74917        1.28344        0.89695
H          3.35297        3.73842        3.72835
H          3.27673        3.50998        1.94814
H          4.57589        1.61714        3.91745
H          1.06525        2.87090        3.91224
H          4.67902        0.01719        2.08840
H         -0.02261        1.68621        2.08848
H          3.38416        0.26131        0.00838
H          1.13570        1.05632        0.00970
