14
1,3-DIOXANE.gamout	Energy:    -307.4622766
C         -3.11017        1.65821       -0.13924
C         -1.64877        1.99308       -0.46671
C         -2.64618       -0.62156       -0.41322
O         -3.50278        0.43925       -0.78054
H         -3.80615        2.43847       -0.49723
H         -3.24106        1.55334        0.96616
O         -1.30258       -0.40258       -0.78895
H         -2.99199       -1.52186       -0.95057
H         -2.70251       -0.77704        0.69751
C         -0.77696        0.76984       -0.15447
H         -1.31192        2.86682        0.12851
H         -1.55796        2.25294       -1.54045
H         -0.73183        0.60353        0.95015
H          0.25575        0.88973       -0.52851
