11
1,3-DICHLOROPROPANE.gamout	Energy:   -1038.0651222
Cl        -2.76364        0.28286       -0.00000
C         -1.25668       -0.73688        0.00000
C         -0.00044        0.13323        0.00001
C          1.25636       -0.73634        0.00001
Cl         2.76394        0.28281       -0.00000
H         -1.32066       -1.37793        0.89920
H         -1.32070       -1.37789       -0.89922
H         -0.00058        0.78925       -0.89217
H         -0.00060        0.78924        0.89219
H          1.32051       -1.37734        0.89920
H          1.32055       -1.37731       -0.89921
