14
1,4-DIOXANE.gamout	Energy:    -307.4544074
C          1.60187        3.20197        1.21112
C          1.00111        1.88608        1.70714
O          1.74496        0.77142        1.21071
C          3.12075        0.87148        1.58190
C          3.72164        2.18777        1.08700
O          2.97743        3.30233        1.58313
H          1.08410        4.07005        1.66350
H          1.50316        3.26372        0.10060
H         -0.03820        1.76338        1.34523
H          0.99751        1.87299        2.82358
H          3.63803        0.00401        1.12785
H          3.22031        0.80804        2.69225
H          3.72652        2.20142       -0.02941
H          4.76046        2.31040        1.45023
