20
1,5-ETHYLCYCLOHEXADIENE.gamout	Energy:    -311.8310025
C         -1.36642        0.36187       -0.06808
C         -0.39258        1.31169       -0.08476
C          1.01199        0.88240       -0.23825
C          1.38524       -0.41049       -0.07498
C          0.36159       -1.46008        0.29772
C         -1.03445       -1.10461       -0.24962
C         -0.64652        2.80293        0.02649
C         -2.10579        3.24070        0.17386
H         -2.42532        0.64845        0.01205
H          1.76741        1.65203       -0.46527
H          2.44532       -0.69690       -0.15517
H          0.67406       -2.45967       -0.06577
H          0.32421       -1.53808        1.41166
H         -1.80574       -1.73852        0.23230
H         -1.07811       -1.34739       -1.33911
H         -0.19989        3.29335       -0.86833
H         -0.05322        3.19180        0.88491
H         -2.71418        2.92226       -0.69619
H         -2.17580        4.34240        0.24878
H         -2.56675        2.81034        1.08521
