24
1,5-DIMETHYLNAPHTHALENE.gamout	Energy:    -464.2026561
C          4.61981        4.94167        0.78874
C          4.56322        6.45056        0.71746
C          3.40912        4.15820        0.80854
C          5.84914        4.28768        0.84273
C          3.49052        2.71362        0.88380
C          2.11924        4.77120        0.75829
C          5.93305        2.87263        0.91523
C          2.27979        1.93034        0.90515
C          4.78037        2.10082        0.93585
C          0.96659        3.99945        0.77825
C          2.33587        0.42124        0.98200
C          1.05051        2.58436        0.85146
H          5.58033        6.88096        0.68243
H          4.04485        6.88288        1.59905
H          4.01578        6.80129       -0.18178
H          6.77448        4.88318        0.82770
H          2.03980        5.86456        0.70355
H          6.91988        2.38771        0.95338
H          4.86026        1.00757        0.99222
H         -0.02038        4.48401        0.73910
H          1.31867       -0.00853        1.01725
H          2.88438        0.07597        1.88275
H          2.85616       -0.01396        0.10308
H          0.12501        1.98916        0.86934
