21
1,5-PENTANEDIAMINE.gamout	Energy:    -308.2539924
N         -3.84268        0.28861       -0.00415
N          3.84268        0.28868        0.00425
C          0.00001       -0.44123       -0.00003
C         -1.28677        0.39805       -0.00317
C          1.28677        0.39807        0.00306
C         -2.57459       -0.44753        0.00526
C          2.57460       -0.44748       -0.00520
H          0.00235       -1.11193       -0.88788
H         -0.00233       -1.11185        0.88789
H         -1.29682        1.06067       -0.89715
H         -1.29263        1.07231        0.88217
H          1.29677        1.06081        0.89695
H          1.29265        1.07222       -0.88237
H         -2.57553       -1.10916        0.89793
H         -2.57409       -1.12887       -0.87243
H          2.57563       -1.10919       -0.89781
H          2.57404       -1.12875        0.87255
H         -3.91788        0.88455       -0.83630
H         -3.91506        0.91073        0.80890
H          3.91780        0.88472        0.83634
H          3.91514        0.91069       -0.80887
