19
1,5-PENTANEDIOL.gamout	Energy:    -347.9625257
O          2.87095        4.41159        2.77864
C          4.03143        4.23117        1.97379
C          4.83916        2.97345        2.34468
C          4.01726        1.67062        2.36446
C          3.37283        1.27283        1.00908
C          1.84930        1.19169        1.03907
O          1.31198        2.50419        1.30129
H          2.18965        3.80069        2.42012
H          3.75046        4.20196        0.89495
H          4.66438        5.13057        2.11344
H          5.68686        2.88477        1.62914
H          5.28537        3.12201        3.34984
H          4.66931        0.85120        2.72641
H          3.22129        1.77894        3.12980
H          3.74250        0.28116        0.67898
H          3.66348        1.98594        0.20982
H          1.51946        0.48097        1.83051
H          1.46577        0.81969        0.06325
H          0.34583        2.44921        1.39513
