22
1,6-DIMETHYLCYCLOHEXENE.gamout	Energy:    -313.0571442
C         -7.70798       -0.31327        0.63098
C         -6.27023       -0.29248        0.07025
C         -8.66133        0.57981       -0.17222
C         -5.82226        1.12159       -0.30465
C         -5.30375       -0.98996        1.04923
C         -6.70002        2.15088       -0.37454
C         -4.36287        1.31841       -0.64101
C         -8.18549        2.04065       -0.13136
H         -8.07583       -1.35999        0.65604
H         -7.68251        0.03576        1.68736
H         -6.26186       -0.89064       -0.87396
H         -9.69642        0.49474        0.21572
H         -8.68685        0.23410       -1.22839
H         -5.68243       -1.99852        1.30888
H         -5.20945       -0.41027        1.99018
H         -4.29066       -1.11741        0.62336
H         -6.31164        3.14724       -0.64700
H         -4.17176        2.34203       -1.01398
H         -3.70437        1.14975        0.23682
H         -4.03247        0.60156       -1.42400
H         -8.44157        2.49918        0.85243
H         -8.72919        2.65000       -0.88477
