24
1,7-DIMETHYLNAPHTHALENE.gamout	Energy:    -464.2040779
C          5.61465        3.91444        0.93358
C          5.67673        5.42363        0.93408
C          4.34548        3.23112        0.90539
C          6.78489        3.15747        0.96011
C          4.32117        1.78490        0.90583
C          3.09974        3.93083        0.87627
C          6.75981        1.73596        0.96039
C          3.05556        1.12346        0.87763
C          5.54975        1.05999        0.93385
C          1.87391        3.26949        0.84839
C          1.86999        1.83980        0.84987
C          0.56457        4.02442        0.81608
H          6.72356        5.77779        0.95682
H          5.19441        5.85307        0.03111
H          5.15585        5.85501        1.81453
H          7.75625        3.67487        0.98163
H          3.10421        5.02999        0.87497
H          7.70690        1.17684        0.98189
H          3.03710        0.02281        0.87799
H          5.52052       -0.03994        0.93387
H          0.90741        1.30613        0.82796
H         -0.02301        3.76469       -0.08875
H         -0.06613        3.77050        1.69325
H          0.72487        5.11845        0.81670
