8
1-BROMO-2-CHLOROETHANE.gamout	Energy:   -3112.7962695
Br        -1.57754        0.02854        0.00000
C          0.29156       -0.62625       -0.00000
C          1.23077        0.56285        0.00000
Cl         2.95373       -0.03942        0.00000
H          0.40453       -1.24849        0.90438
H          0.40453       -1.24849       -0.90438
H          1.11057        1.18791       -0.90239
H          1.11057        1.18791        0.90238
