15
1-BUTANETHIOL.gamout	Energy:    -556.4508751
C         18.00669       10.03640       -0.00010
C         19.29588        9.19633        0.00010
C         19.01497        7.69021       -0.00011
C         18.27343       11.54735        0.00010
S         20.61878        6.76346        0.00020
H         17.39567        9.76720       -0.88861
H         17.39523        9.76702        0.88806
H         19.90778        9.45688        0.89030
H         19.90816        9.45706       -0.88980
H         18.43346        7.40510       -0.89902
H         18.43297        7.40493        0.89843
H         17.32743       12.12339       -0.00002
H         18.85327       11.85236        0.89462
H         18.85365       11.85254       -0.89411
H         20.08727        5.50787       -0.00001
