26
1-CHLOROOCTANE.gamout	Energy:    -774.9872721
C         51.97687        0.01138       -0.00011
C         53.33124        0.73486        0.00006
C         54.53961       -0.21433       -0.00013
C         50.77336        0.96568        0.00009
C         55.88529        0.53273        0.00008
C         49.41419        0.24954       -0.00008
C         57.06807       -0.42730       -0.00013
C         48.21799        1.21051        0.00013
Cl        58.66483        0.45833        0.00013
H         51.91587       -0.65567       -0.88844
H         51.91584       -0.65606        0.88793
H         53.39167        1.40110        0.88853
H         53.39171        1.40150       -0.88811
H         54.48158       -0.88003       -0.88925
H         54.48152       -0.88045        0.88868
H         50.83603        1.63273        0.88850
H         50.83606        1.63317       -0.88797
H         55.95065        1.19151        0.89065
H         55.95070        1.19200       -0.89012
H         49.35403       -0.41697       -0.88780
H         49.35400       -0.41742        0.88730
H         57.07790       -1.07115       -0.89961
H         57.07784       -1.07164        0.89899
H         47.25527        0.66291       -0.00004
H         48.23148        1.86606        0.89474
H         48.23154        1.86651       -0.89415
