14
1-CHLOROBUTANE.gamout	Energy:    -617.8462507
C          2.51736        0.84050        1.17920
C          2.77813        2.21509        1.82247
C          1.56897        2.71618        2.60111
C          3.72193        0.31714        0.38702
Cl         1.87391        4.34832        3.36059
H          2.24411        0.10875        1.96942
H          1.63460        0.91078        0.50777
H          3.65209        2.15358        2.50360
H          3.04084        2.95376        1.03723
H          0.68323        2.84751        1.95171
H          1.30155        2.03872        3.43352
H          3.50624       -0.66948       -0.06612
H          3.99545        1.01259       -0.43172
H          4.61096        0.20229        1.03930
