14
1-CHLORO-2-METHYLPROPANE.gamout	Energy:    -617.8470560
Cl        -1.78843       -0.03405       -0.07220
C         -0.14858       -0.72105        0.35027
C          1.00494        0.03351       -0.31694
C          1.10447        1.49194        0.15506
C          2.31452       -0.73666       -0.05510
H         -0.07741       -0.67932        1.45443
H         -0.18179       -1.77884        0.03096
H          0.81244        0.02724       -1.41165
H          0.16971        2.04657       -0.04941
H          1.29959        1.53809        1.24675
H          1.93544        2.01370       -0.35803
H          2.26225       -1.77974       -0.42512
H          3.16322       -0.23934       -0.56398
H          2.54975       -0.76910        1.02884
