17
1-CHLOROPENTANE.gamout	Energy:    -657.1315148
C          3.18942        1.92530        3.72254
C          2.82583        1.54428        2.28143
C          1.32304        1.29761        2.08197
C          4.67314        2.16850        3.96622
C          0.95200        0.91689        0.64345
Cl         5.66336        0.63525        3.82039
H          2.66503        2.86555        4.00782
H          2.82906        1.14480        4.42508
H          3.16300        2.35038        1.59245
H          3.39409        0.63507        1.99289
H          0.99181        0.49579        2.77690
H          0.75905        2.20835        2.38054
H          5.10486        2.86980        3.22715
H          4.86883        2.55182        4.98360
H          1.47193       -0.00963        0.32574
H          1.23546        1.71819       -0.06876
H         -0.13669        0.74340        0.53941
