20
1-CHLOROHEXANE.gamout	Energy:    -696.4168369
C         -0.02414       -0.06307       -0.04078
C          1.51125       -0.02635       -0.04082
C          2.07315        1.40645       -0.04099
C         -0.61039       -1.48278       -0.04068
C          3.59504        1.42579       -0.04088
C         -2.14376       -1.50731       -0.03981
Cl         4.25021        3.13188       -0.04353
H         -0.40218        0.49121        0.84658
H         -0.40222        0.49110       -0.92819
H          1.89000       -0.57792        0.84775
H          1.88999       -0.57809       -0.92930
H          1.70161        1.95733        0.84795
H          1.70173        1.95713       -0.93010
H         -0.22950       -2.03527        0.84566
H         -0.23051       -2.03497       -0.92764
H          4.01734        0.94095        0.85926
H          4.01752        0.93800       -0.93935
H         -2.55197       -0.99510        0.85517
H         -2.53451       -2.54358       -0.04035
H         -2.55303       -0.99375       -0.93352
