11
1-CHLOROPROPANE.gamout	Energy:    -578.5608272
C          1.63576        1.91199        1.05891
Cl        -0.04540        2.16446        1.72176
C          2.44512        0.94049        1.90969
C          3.85632        0.72857        1.33861
H          1.50023        1.54119        0.02524
H          2.10292        2.91419        1.01736
H          2.50602        1.32867        2.94671
H          1.90563       -0.02664        1.96691
H          4.42735        1.67807        1.29971
H          4.42851        0.01834        1.96609
H          3.81908        0.31420        0.31089
