21
1-ETHOXYBUTANE.gamout	Energy:    -312.0691820
O         -1.23510       -0.27195        0.00057
C          1.16822       -0.34268        0.00084
C          2.47946        0.45704        0.00699
C         -0.07268        0.54514        0.00615
C          3.72828       -0.43396        0.00125
C         -2.44727        0.47212        0.00419
C         -3.62163       -0.49578       -0.00249
H          1.12692       -1.00012       -0.89317
H          1.12592       -1.01182        0.88609
H          2.50257        1.11997        0.89910
H          2.50359        1.13217       -0.87591
H         -0.07365        1.20740        0.90800
H         -0.07330        1.21883       -0.88718
H          3.75171       -1.09573        0.89081
H          3.75245       -1.08285       -0.89771
H          4.65695        0.16943        0.00604
H         -2.48490        1.13183        0.90555
H         -2.48344        1.14240       -0.88941
H         -4.57911        0.05980        0.00025
H         -3.59054       -1.13770       -0.90372
H         -3.59172       -1.14838        0.89106
