24
1-HEPTANOL.gamout	Energy:    -351.3628259
C          3.13333       -0.53121        0.00000
C          1.89000        0.35382        0.00000
C          0.58077       -0.44796        0.00000
C         -0.67531        0.43673        0.00000
C         -1.99000       -0.35606       -0.00000
C         -3.24486        0.53101        0.00000
C         -4.55848       -0.26049       -0.00000
O          4.29103        0.31150       -0.00000
H          3.12578       -1.19307        0.89835
H          3.12578       -1.19307       -0.89834
H          1.93209        1.01773        0.88929
H          1.93209        1.01773       -0.88929
H          0.55368       -1.11752       -0.88814
H          0.55368       -1.11752        0.88814
H         -0.65019        1.10693        0.88746
H         -0.65019        1.10693       -0.88746
H         -2.01557       -1.02656       -0.88776
H         -2.01558       -1.02657        0.88776
H         -3.21366        1.20116        0.88647
H         -3.21366        1.20116       -0.88647
H         -4.63469       -0.91220       -0.89419
H         -4.63469       -0.91220        0.89419
H         -5.43798        0.41302        0.00000
H          5.08957       -0.24308       -0.00000
