22
1-HEPTANAL.gamout	Energy:    -350.1532351
C          3.60085        1.53454        3.14643
C          2.63224        2.67825        2.80981
C          2.07675        2.60514        1.38016
C          4.15363        1.61194        4.58634
C          1.11152        3.75047        1.03627
C          5.14042        0.50220        4.86765
C          0.55788        3.67632       -0.39185
O          5.02776       -0.33857        5.74254
H          4.44466        1.54544        2.42269
H          3.08755        0.55912        3.00659
H          3.15192        3.65135        2.95479
H          1.79006        2.67203        3.53529
H          1.55793        1.63118        1.23760
H          2.92046        2.60755        0.65524
H          3.34082        1.57648        5.33792
H          4.69890        2.57598        4.71023
H          0.27245        3.74718        1.76504
H          1.63497        4.72029        1.18359
H          6.03324        0.48124        4.17128
H         -0.00124        2.73249       -0.55557
H         -0.13138        4.51651       -0.60450
H          1.37442        3.71263       -1.14124
