24
1-HEPTANETHIOL.gamout	Energy:    -674.3068050
C         -0.04036       -0.12294        0.00011
C          1.28929        0.64340       -0.00010
C          1.11569        2.17025        0.00009
C          2.44410        2.94184       -0.00011
C          2.26742        4.46799        0.00009
C          3.60139        5.23409       -0.00012
C          3.40508        6.75339        0.00010
S          5.05949        7.58744       -0.00029
H          0.12203       -1.21849       -0.00004
H         -0.64621        0.12786        0.89458
H         -0.64656        0.12798       -0.89409
H          1.88869        0.34568       -0.88756
H          1.88906        0.34551        0.88705
H          0.51728        2.47163        0.88824
H          0.51692        2.47180       -0.88775
H          3.04234        2.64113       -0.88813
H          3.04274        2.64094        0.88757
H          1.67068        4.76868        0.88900
H          1.67026        4.76890       -0.88846
H          4.19689        4.93873       -0.89018
H          4.19735        4.93850        0.88956
H          2.84135        7.07145        0.89901
H          2.84077        7.07166       -0.89837
H          4.60260        8.87223        0.00010
