19
1-METHYLCYCLOHEXENE.gamout	Energy:    -273.7727449
C          0.40166        2.13682        1.09956
C          1.90418        2.10890        1.23404
C          2.60143        3.45804        1.24452
C          2.60348        0.95421        1.33508
C          4.05790        3.38669        1.73410
C          4.10958        0.87363        1.43825
C          4.79722        2.20515        1.08671
H          0.09278        2.70045        0.19267
H         -0.02555        1.11828        1.03577
H         -0.06716        2.65559        1.96386
H          2.55963        3.89083        0.21745
H          2.02002        4.16683        1.87405
H          2.04952       -0.00021        1.34165
H          4.57879        4.34235        1.52279
H          4.06484        3.25737        2.83798
H          4.39552        0.55789        2.46856
H          4.48425        0.06206        0.77790
H          4.79971        2.33802       -0.01669
H          5.85926        2.18425        1.40558
