20
1-METHYLINDENE.gamout	Energy:    -386.8083232
C          2.20223        0.73175        4.71310
C          1.98051        2.06811        3.97265
C          3.21837        2.62680        3.28648
C          0.98687        1.98568        2.82690
C          2.93341        2.82976        1.90658
C          4.47753        2.94534        3.80502
C          1.54408        2.41831        1.66288
C          3.91541        3.34927        1.04318
C          5.46114        3.46604        2.93718
C          5.18045        3.66610        1.57150
H          2.95818        0.84540        5.51414
H          1.26158        0.37992        5.18079
H          2.55572       -0.04844        4.01167
H          1.61026        2.81357        4.71643
H         -0.04056        1.61636        2.95150
H          4.70742        2.79379        4.87095
H          1.04460        2.46417        0.68560
H          3.69881        3.50958       -0.02374
H          6.45637        3.72073        3.33070
H          5.96031        4.07443        0.91148
