24
1-METHYL-3-PROPYLBENZENE.gamout	Energy:    -389.2346401
C          1.78415        4.73748        1.93491
C          0.65451        5.71434        1.58788
C          2.60629        4.29503        0.70355
C          3.72166        3.33068        1.05394
C          3.49643        1.93826        1.07740
C          4.52849        1.05691        1.43885
C          5.79655        1.55167        1.78199
C          6.05303        2.93990        1.76756
C          7.41151        3.48185        2.15577
C          5.00430        3.80695        1.39852
H          1.36624        3.83414        2.42746
H          2.47120        5.19701        2.67660
H          0.08423        6.00928        2.49040
H         -0.06036        5.26129        0.87090
H          1.04950        6.64072        1.12272
H          3.02965        5.19635        0.21107
H          1.92345        3.82538       -0.03615
H          2.50658        1.54358        0.80162
H          4.34514       -0.02821        1.44601
H          6.60127        0.85294        2.05772
H          8.22942        2.83826        1.77630
H          7.52060        3.53009        3.26009
H          7.56830        4.50476        1.76369
H          5.19417        4.89247        1.37175
