27
1-METHYL-1-ETHYLCYCLOHEXANE.gamout	Energy:    -353.5645354
C          1.66638        3.09702        1.12117
C          0.84684        1.96238        1.76071
C          1.70930        0.70841        1.98597
C          2.96074        3.47292        1.89731
C          3.78088        2.17819        2.15706
C          2.59658        4.16698        3.22900
C          3.77310        4.44846        0.99913
C          2.96814        1.04098        2.80389
C          5.10372        4.96900        1.56094
H          1.03557        4.00340        0.99988
H          1.95813        2.78306        0.09432
H         -0.02051        1.72232        1.11255
H          0.42159        2.29784        2.73100
H          2.01587        0.29539        0.99902
H          1.11753       -0.08390        2.48912
H          4.66235        2.41296        2.78666
H          4.17964        1.81700        1.18275
H          2.06440        5.12093        3.03798
H          3.49793        4.39865        3.82922
H          1.93780        3.54221        3.86031
H          3.96780        3.93632        0.03180
H          3.11984        5.31480        0.75627
H          2.67226        1.32683        3.83614
H          3.61024        0.14214        2.90663
H          5.81175        4.14652        1.78219
H          4.96099        5.55252        2.49137
H          5.59737        5.63654        0.82819
