31
1-METHYLDECALIN.gamout	Energy:    -430.9424696
C         -0.00107        0.50343       -0.20210
C          0.35570       -0.94354        0.23289
C         -1.42257        0.90630        0.27352
C          1.09335        1.48464        0.26834
C         -0.71150       -1.95181       -0.22581
C          1.76360       -1.34190       -0.24867
C         -2.46733       -0.13433       -0.18216
C         -2.11427       -1.56188        0.25967
C          2.49678        1.07949       -0.21045
C          2.84486       -0.35520        0.21774
C         -1.83266        2.31442       -0.18708
H         -0.01221        0.51683       -1.31981
H          0.36963       -0.94946        1.34977
H         -1.40773        0.90094        1.38925
H          1.07878        1.52454        1.38129
H          0.86469        2.51068       -0.07989
H         -0.44032       -2.96839        0.12813
H         -0.70507       -1.99973       -1.33823
H          1.76166       -1.38770       -1.36128
H          1.99761       -2.36966        0.10017
H         -2.53974       -0.10153       -1.29292
H         -3.46799        0.15677        0.19929
H         -2.87000       -2.28073       -0.11768
H         -2.15024       -1.62357        1.36954
H          3.25126        1.79687        0.17236
H          2.53581        1.14804       -1.32004
H          3.83714       -0.65325       -0.17859
H          2.92593       -0.39655        1.32644
H         -1.80517        2.38962       -1.29410
H         -2.86556        2.55027        0.13771
H         -1.17461        3.10367        0.22187
