16
1-METHOXY-2-PROPANOL.gamout	Energy:    -308.6642207
O          3.22732       -0.72176        0.86672
O          0.40796       -0.81443        0.10317
C          1.01920        0.23789        0.86656
C          2.45863        0.36273        0.37560
C          0.24738        1.55537        0.71763
C          4.55764       -0.71678        0.38662
H          1.05957       -0.05312        1.94154
H          2.45375        0.37067       -0.74178
H          2.89240        1.33309        0.72082
H         -0.79667        1.43196        1.06597
H          0.71258        2.36319        1.31781
H          0.21877        1.87069       -0.34418
H         -0.41882       -1.08165        0.53950
H          5.07291       -1.58803        0.83122
H          5.09812        0.21420        0.68224
H          4.59178       -0.80291       -0.72493
