25
1-N-BUTYLCYCLOPENTENE.gamout	Energy:    -352.3344470
C          2.86247        3.69525        1.22213
C          1.40767        3.87567        0.84528
C          3.15361        2.42622        1.58962
C          0.74646        2.56332        1.35682
C          1.91176        1.54834        1.50355
C          4.50137        1.88209        1.98167
C          5.93951        0.82145        3.85902
C          4.59132        1.45189        3.46395
C          7.13894        1.77863        3.79434
H          3.60639        4.50381        1.15612
H          1.29950        3.99012       -0.25806
H          0.95171        4.78319        1.29334
H         -0.06057        2.20068        0.69187
H          0.29219        2.74523        2.35161
H          1.99313        0.87366        0.61964
H          1.78653        0.88352        2.38307
H          4.73900        0.99780        1.34597
H          5.27730        2.64361        1.76434
H          6.13292       -0.05934        3.20792
H          5.85113        0.42280        4.89151
H          3.78126        0.72420        3.67901
H          4.38972        2.33739        4.10490
H          8.06633        1.28084        4.13987
H          6.97530        2.66752        4.43784
H          7.32530        2.14172        2.76422
