20
1-NAPHTHYLAMINE.gamout	Energy:    -440.9540157
C          6.87040        1.18303        1.55809
C          6.92095        1.83293        0.29538
C          5.71955        0.51066        1.94619
C          5.82422        1.78553       -0.55789
C          4.57136        0.44327        1.09737
C          3.38160       -0.23513        1.49997
C          2.28543       -0.27162        0.64818
C          4.63174        1.09076       -0.19545
C          3.48058        1.01293       -1.06720
N          3.50030        1.64478       -2.30993
C          2.33328        0.34053       -0.62815
H          7.73994        1.22066        2.23075
H          7.82655        2.37950       -0.00610
H          5.67138        0.01456        2.92749
H          5.88455        2.31662       -1.51884
H          3.34484       -0.72017        2.48585
H          1.36632       -0.79168        0.95725
H          2.75602        1.38443       -2.95550
H          4.40337        1.74801       -2.77064
H          1.45752        0.28479       -1.29315
