13
1-NITROPROPANE.gamout	Energy:    -323.4437882
N          1.08991        0.01740       -0.05153
O          1.29650       -1.19604       -0.11706
O          1.93716        0.87136        0.22048
C         -0.31655        0.50517       -0.35481
C         -1.39059       -0.34760        0.31994
C         -2.80228        0.15797       -0.01147
H         -0.33665        1.56294       -0.03878
H         -0.39904        0.45936       -1.45958
H         -1.26932       -1.39849       -0.00569
H         -1.22814       -0.32878        1.41718
H         -2.95237        1.20176        0.33007
H         -2.99794        0.12588       -1.10218
H         -3.56491       -0.47094        0.48562
