25
1-NONYNE.gamout	Energy:    -352.2788579
C          6.09431        1.95211        1.08001
C          4.82343        2.81908        1.15413
C          3.70075        2.22256        2.01572
C          6.88758        1.86683        2.39318
C          2.44537        3.12513        2.06429
C          8.18529        1.05219        2.27654
C          1.35172        2.56695        2.86162
C          8.98276        0.98434        3.58442
C          0.45028        2.08266        3.53241
H          5.81951        0.92560        0.75005
H          6.75828        2.35747        0.28691
H          4.43825        2.98508        0.12504
H          5.09240        3.82549        1.54611
H          4.05292        2.05421        3.05352
H          3.41115        1.22626        1.62082
H          7.13120        2.89719        2.73695
H          6.25463        1.42340        3.19147
H          2.08206        3.31067        1.02928
H          2.72167        4.12194        2.47309
H          7.94085        0.02257        1.93560
H          8.81912        1.49185        1.47605
H          8.38928        0.51054        4.39280
H          9.91508        0.39834        3.46585
H          9.26550        1.99892        3.93229
H         -0.34931        1.65980        4.12233
