25
1-OCTANAL.gamout	Energy:    -389.4383688
C          4.64959        2.57362        2.22567
C          4.11958        3.79789        1.46434
C          2.75475        4.28891        1.96900
C          6.01127        2.07877        1.71766
C          2.23094        5.51566        1.19027
C          6.54643        0.85239        2.47366
C          0.90211        6.00028        1.72335
C          7.90528        0.36323        1.95866
O         -0.12798        6.07593        1.07645
H          4.72651        2.81843        3.30812
H          3.90743        1.74831        2.15272
H          4.04227        3.55290        0.38257
H          4.85870        4.62600        1.53712
H          2.82840        4.53847        3.04997
H          2.01326        3.46543        1.89095
H          5.93185        1.83555        0.63483
H          6.75335        2.90482        1.78851
H          2.12447        5.29597        0.10973
H          2.95973        6.35083        1.30388
H          5.80119        0.03064        2.40246
H          6.62270        1.09834        3.55512
H          0.90745        6.29061        2.81789
H          8.26266       -0.52017        2.52316
H          7.84846        0.07729        0.88858
H          8.67698        1.15458        2.05021
