27
1-PROPYLNAPHTHALENE.gamout	Energy:    -503.4828557
C          1.53317        2.90324        4.83045
C          1.08403        1.73684        5.43618
C          2.92807        3.20735        4.74089
C          2.00962        0.80861        5.98751
C          3.37041        1.07154        5.92443
C          3.86660        2.26226        5.30996
C          5.26590        2.54008        5.25059
C          3.42574        4.41293        4.12223
C          4.80223        4.63545        4.10247
C          2.48308        5.41900        3.48970
C          5.72374        3.70691        4.65974
C          3.04131        4.92877        1.01369
C          1.95245        5.01562        2.09037
H          0.79925        3.60600        4.41480
H          0.00501        1.52997        5.49201
H          1.64491       -0.11288        6.46470
H          4.09383        0.36081        6.35279
H          5.97028        1.81502        5.68517
H          5.18744        5.55821        3.64266
H          1.61956        5.60451        4.16238
H          3.01190        6.39027        3.39930
H          6.80180        3.92271        4.62000
H          2.60866        4.65312        0.03228
H          3.80604        4.17018        1.27141
H          3.55984        5.90180        0.89158
H          1.18958        5.76264        1.78498
H          1.42505        4.04208        2.16036
