12
1-PROPANETHIOL.gamout	Energy:    -517.1666818
C          3.35162        1.06243        2.10576
C          2.06360        1.86570        1.89879
C          0.88068        1.30079        2.69940
S          4.82676        1.73855        1.22572
H          3.21354        0.00072        1.81821
H          3.64960        1.07154        3.17409
H          1.81295        1.87387        0.81684
H          2.24931        2.92204        2.18133
H          0.66028        0.25204        2.41358
H          1.08651        1.31463        3.78911
H         -0.03691        1.89562        2.52434
H          4.33696        1.59573       -0.04010
