32
2,2,5-TRIMETHYLHEPTANE.gamout	Energy:    -394.0468580
C         -0.15636       53.30329       -0.46815
C          1.34887       53.08954       -0.26322
C          2.17497       54.36251        0.02621
C          1.69173       55.11818        1.29846
C          3.67048       54.01290        0.12289
C          0.79416       56.33073        0.99852
C          0.17831       57.07993        2.21249
C         -0.60206       58.29791        1.66790
C         -0.80069       56.16271        2.97946
C          1.27849       57.58248        3.17252
H         -0.65612       52.35345       -0.74126
H         -0.64943       53.68317        0.44797
H         -0.35055       54.03019       -1.28277
H          1.76667       52.59789       -1.16788
H          1.51134       52.37066        0.57082
H          2.04724       55.04569       -0.84430
H          1.16992       54.40399        1.97037
H          2.57895       55.46397        1.86701
H          4.28949       54.92416        0.24137
H          4.02446       53.47786       -0.78049
H          3.86597       53.35902        0.99834
H          1.39216       57.05985        0.40799
H         -0.03752       56.02207        0.33083
H         -1.07935       58.86810        2.48977
H          0.07127       58.98841        1.12116
H         -1.40225       57.98205        0.96842
H         -1.31262       56.72294        3.78686
H         -0.28246       55.30459        3.44999
H         -1.58012       55.76082        2.30173
H          2.02838       58.19881        2.63668
H          0.83862       58.20896        3.97385
H          1.81501       56.74715        3.66286
