26
2,2,4-TRIMETHYLPENTANE.gamout	Energy:    -315.4772691
C          3.43998        2.49555        1.44144
C          2.03957        2.10607        2.00296
C          4.67999        2.28460        2.35217
C          1.67970        3.00766        3.20504
C          1.98491        0.62509        2.43639
C          1.00329        2.33517        0.87931
C          5.37624        0.93372        2.10111
C          5.68523        3.43919        2.18012
H          3.59860        1.94987        0.48577
H          3.37975        3.56905        1.16178
H          4.34208        2.30088        3.41110
H          1.71467        4.07942        2.92432
H          0.65744        2.78718        3.57199
H          2.37467        2.85769        4.05437
H          2.66341        0.41724        3.28633
H          2.26402       -0.04738        1.60109
H          0.96035        0.35225        2.75939
H          1.23186        1.70906       -0.00630
H         -0.01880        2.07889        1.22290
H          0.99512        3.39456        0.55305
H          5.76909        0.88971        1.06404
H          4.69183        0.07621        2.23561
H          6.23348        0.79291        2.78973
H          6.58154        3.29570        2.81591
H          6.02929        3.50595        1.12710
H          5.22945        4.41281        2.44781
