27
2,2,3-TRIMETHYL-3-PENTANOL.gamout	Energy:    -390.6483741
C          1.44990       -0.96168       -1.35790
C          1.12545       -0.21110       -0.04642
C          2.07658        1.00506        0.06758
C         -0.38953        0.28666       -0.01146
C         -1.39261       -0.89889       -0.01048
C         -2.87562       -0.50202        0.03703
O         -0.60228        1.08091        1.18105
C         -0.70005        1.25434       -1.16638
C          1.41597       -1.15772        1.14358
H          2.51352       -1.27320       -1.35794
H          0.84233       -1.87797       -1.48752
H          1.29823       -0.32115       -2.24679
H          2.05447        1.63243       -0.84297
H          1.80722        1.64104        0.93032
H          3.11965        0.65749        0.20053
H         -1.21048       -1.53662       -0.89927
H         -1.17515       -1.54021        0.86879
H         -3.07205        0.20287        0.86708
H         -3.20996       -0.02345       -0.90318
H         -3.50828       -1.39727        0.19005
H         -0.52506        0.49698        1.95682
H         -0.68327        0.73684       -2.14277
H         -1.70424        1.69139       -1.02542
H          0.02161        2.08878       -1.19356
H          2.48918       -1.42949        1.15396
H          1.19932       -0.68216        2.12164
H          0.84281       -2.10170        1.08136
