29
2,2,3-TRIMETHYLHEXANE.gamout	Energy:    -354.7588420
C          4.45891        1.75828        2.14895
C          5.55872        1.82459        3.27495
C          3.08806        2.37507        2.55613
C          4.92610        2.35950        0.80830
C          4.99166        1.29312        4.61077
C          6.06684        3.26826        3.48451
C          6.74981        0.91948        2.88548
C          2.01545        1.34875        2.96072
C          0.66816        1.98755        3.32004
H          4.28710        0.67249        1.97276
H          3.22124        3.11007        3.37768
H          2.68899        2.96753        1.70582
H          5.01750        3.46220        0.87079
H          5.89945        1.95619        0.47169
H          4.18482        2.13940        0.01544
H          4.18035        1.93342        5.00688
H          5.78895        1.25840        5.37926
H          4.59476        0.26469        4.49740
H          6.60235        3.64875        2.59369
H          6.77362        3.30882        4.33716
H          5.23793        3.96833        3.70798
H          7.23732        1.23990        1.94512
H          6.42192       -0.13182        2.75643
H          7.52612        0.93199        3.67664
H          1.87849        0.63280        2.12180
H          2.38009        0.74356        3.81533
H          0.26026        2.56748        2.46727
H          0.77201        2.68571        4.17551
H         -0.08355        1.22357        3.59844
