9
2,2,2-TRIFLUOROETHANOL.gamout	Energy:    -452.4622006
F         -0.44265       -0.78217        1.09400
C         -0.35101        0.01153       -0.00000
C          0.92295        0.85622       -0.00001
O          2.03542       -0.01425        0.00001
F         -0.44266       -0.78217       -1.09400
F         -1.43467        0.84156        0.00000
H          0.87586        1.50157       -0.90548
H          0.87585        1.50160        0.90544
H          2.85468        0.50808        0.00003
