24
2,2-DIMETHYL-TRANS-3-HEXENE.gamout	Energy:    -314.2524917
C          3.38738        2.11227        2.59873
C          1.98816        2.13145        1.99996
C          4.46311        2.82779        2.21574
C          1.86761        3.11001        0.81641
C          1.64934        0.69665        1.51954
C          0.98812        2.54322        3.11121
C          5.82753        2.74650        2.85153
C          6.92611        2.28699        1.87310
H          3.50715        1.41781        3.45242
H          4.37242        3.52688        1.36570
H          0.83896        3.09529        0.40685
H          2.09089        4.14958        1.12733
H          2.56022        2.84058       -0.00517
H          2.34014        0.37567        0.71569
H          0.61280        0.64817        1.12778
H          1.73127       -0.03325        2.34960
H         -0.05353        2.51373        2.73136
H          1.05016        1.85798        3.98032
H          1.19652        3.56942        3.47162
H          6.10306        3.74860        3.25055
H          5.78889        2.06290        3.72508
H          6.99108        2.96564        0.99853
H          7.91898        2.27389        2.36472
H          6.71539        1.26846        1.49156
