20
2,2-DIMETHYLBUTANE.gamout	Energy:    -236.9095429
C          3.21803        1.05905        2.77310
C          2.10107        1.87850        2.06489
C          1.97507        1.36119        0.61472
C          0.74510        1.68512        2.78020
C          2.46167        3.38091        2.03395
C          3.54901        1.45390        4.21862
H          4.14004        1.13370        2.15636
H          2.92219       -0.01214        2.74635
H          2.92301        1.49885        0.05591
H          1.72471        0.28104        0.59459
H          1.17841        1.90358        0.06716
H          0.75151        2.09909        3.80759
H          0.48195        0.61011        2.84943
H         -0.06717        2.19590        2.22514
H          2.47623        3.81905        3.05072
H          3.45858        3.54369        1.57703
H          1.72047        3.95046        1.43824
H          3.94348        2.48672        4.28725
H          2.66233        1.38501        4.87923
H          4.32272        0.78122        4.63759
