32
2,3,3,5-TETRAMETHYLHEXANE.gamout	Energy:    -394.0419616
C          0.05220       35.87339       -0.11254
C          1.57373       35.84179        0.12517
C          2.22634       37.24660        0.00649
C          1.87942       35.21328        1.49796
C          2.86621       37.64656       -1.35971
C          3.32161       39.15406       -1.25635
C          4.10478       36.74874       -1.58904
C          1.88536       37.44589       -2.53435
C          4.31204       39.58767       -2.35460
C          2.15148       40.15518       -1.21319
H         -0.37965       34.85399       -0.06472
H         -0.44631       36.48564        0.66769
H         -0.21194       36.30485       -1.09590
H          2.02213       35.17656       -0.64462
H          1.47052       38.00324        0.30158
H          3.03634       37.32828        0.76238
H          2.97016       35.09796        1.65577
H          1.41224       34.21371        1.59928
H          1.48681       35.85186        2.31657
H          3.86290       39.23292       -0.28540
H          4.54017       36.89632       -2.59521
H          3.83975       35.67715       -1.50686
H          4.89328       36.95722       -0.83763
H          0.93420       37.99035       -2.38457
H          2.32800       37.79719       -3.48712
H          1.64076       36.37489       -2.67067
H          4.56762       40.65889       -2.23542
H          5.26037       39.02072       -2.31985
H          3.87885       39.46962       -3.36870
H          2.52488       41.16817       -0.96612
H          1.38351       39.89728       -0.45969
H          1.64780       40.22547       -2.19823
