32
2,3,4,4-TETRAMETHYLHEXANE.gamout	Energy:    -394.0391668
C         -0.12593        1.72810        0.39601
C          0.71292        2.98637        0.65782
C          2.09153        3.08970       -0.06605
C          2.70041        4.50905        0.27146
C          3.02241        1.98552        0.48615
C          1.92364        2.87552       -1.58604
C          1.92275        5.72461       -0.34520
C          4.21418        4.61843        0.01103
C          1.89573        6.90582        0.64429
C          2.44016        6.20701       -1.71522
H         -1.06206        1.76550        0.98644
H         -0.41641        1.63761       -0.66881
H          0.40288        0.79850        0.68282
H          0.90279        3.07764        1.74912
H          0.10137        3.87050        0.38502
H          2.56968        4.59978        1.37351
H          3.98245        1.94399       -0.06220
H          2.55386        0.98786        0.38711
H          3.24785        2.14553        1.56016
H          1.62109        1.83402       -1.80760
H          1.15191        3.54339       -2.01500
H          2.87326        3.05691       -2.12514
H          0.86856        5.40909       -0.48984
H          4.57414        5.64574        0.21429
H          4.79413        3.94420        0.66641
H          4.47941        4.38006       -1.03792
H          1.34074        7.76889        0.22616
H          1.41217        6.62012        1.59926
H          2.92261        7.25590        0.87730
H          1.77195        6.99455       -2.11635
H          2.48900        5.39899       -2.46712
H          3.45149        6.65189       -1.63277
