29
2,3,3,4-TETRAMETHYLPENTANE.gamout	Energy:    -354.7500042
C          3.65259        1.95646        2.42222
C          3.44002        3.47091        2.02286
C          2.05970        4.14058        2.40525
C          3.64474        3.58007        0.49094
C          4.56300        4.32213        2.66764
C          3.98876        1.67351        3.90247
C          2.54124        0.99099        1.96694
C          0.85526        3.79757        1.50375
C          1.64332        3.99070        3.88104
H          4.56553        1.66825        1.85229
H          2.25033        5.22628        2.24420
H          4.69065        3.32734        0.22721
H          2.98590        2.90165       -0.08150
H          3.45206        4.61214        0.13445
H          4.57152        5.33935        2.22835
H          4.44276        4.43552        3.76053
H          5.55887        3.87143        2.48490
H          3.13501        1.86854        4.57688
H          4.25521        0.60416        4.01903
H          4.85083        2.26217        4.26600
H          1.62581        1.09962        2.58115
H          2.25823        1.12701        0.90648
H          2.88278       -0.05652        2.08383
H          1.05312        3.99090        0.43344
H          0.53518        2.74444        1.60551
H         -0.01003        4.42758        1.79146
H          2.46138        4.22384        4.58750
H          0.80674        4.68043        4.10977
H          1.28343        2.96629        4.10036
