29
2,3-BENZOFLUORENE.gamout	Energy:    -654.6181232
C          4.63627        4.57653        1.07465
C          3.34888        5.28664        1.16310
C          5.68069        5.55893        0.93821
C          4.94215        3.22010        1.10346
C          3.59145        6.68577        1.08179
C          2.03485        4.80102        1.30490
C          5.07847        6.95326        0.93467
C          7.00385        5.17371        0.83383
C          6.30037        2.79319        0.99811
C          2.52801        7.59551        1.14135
C          0.97330        5.71871        1.36493
C          7.35050        3.78540        0.86108
C          6.66541        1.41113        1.02377
C          1.21561        7.10528        1.28390
C          8.70327        3.34329        0.75712
C          7.99271        1.01724        0.92059
C          9.02172        1.99160        0.78578
H          4.15175        2.46165        1.20730
H          1.83741        3.72078        1.36817
H          5.47069        7.57625        1.76767
H          5.31186        7.50155       -0.00360
H          7.80583        5.92096        0.72941
H          2.71146        8.67899        1.07885
H         -0.05793        5.35241        1.47639
H          5.87022        0.65721        1.12796
H          0.37219        7.80956        1.33249
H          9.49744        4.09849        0.65309
H          8.25224       -0.05141        0.94278
H         10.07073        1.67153        0.70432
