21
2,3-DIMETHYL-1-PENTENE.gamout	Energy:    -274.9643636
C          2.08603        2.85248        3.11581
C          2.66520        2.10096        1.90591
C          4.86898        1.89678        3.13655
C          4.17733        1.88642        1.97708
C          4.87273        1.66680        0.65206
C          1.94096        0.74558        1.67109
C          0.46161        0.86999        1.28325
H          2.12340        2.23225        4.03399
H          1.02792        3.12597        2.94550
H          2.64846        3.78598        3.30848
H          2.47863        2.72595        1.00082
H          5.95474        1.72025        3.15230
H          4.38868        2.07765        4.10815
H          4.76681        2.56406        0.00480
H          4.43155        0.82106        0.08367
H          5.95117        1.46285        0.78597
H          2.47358        0.18416        0.87658
H          2.04239        0.13315        2.59278
H         -0.14206        1.33524        2.08676
H          0.02212       -0.12547        1.07656
H          0.33777        1.48649        0.36927
