24
2,3-DIMETHYL-CIS-3-HEXENE.gamout	Energy:    -314.2490840
C          1.21997       -0.84073       -0.99355
C          2.22822       -0.00843       -0.17339
C          3.09914       -0.85833        0.76477
C          3.98472       -1.80876        0.37592
C          4.33794       -2.29203       -1.00927
C          4.05303       -3.79403       -1.20889
C          2.91177       -0.55336        2.23462
C          3.06014        0.94541       -1.05854
H          0.53284       -0.17449       -1.55368
H          0.60661       -1.48656       -0.33570
H          1.72161       -1.49556       -1.73136
H          1.61596        0.64256        0.48706
H          4.53212       -2.32906        1.18415
H          5.42370       -2.11169       -1.17933
H          3.81090       -1.70833       -1.78565
H          4.58688       -4.40446       -0.45292
H          4.38061       -4.13363       -2.21124
H          2.97084       -4.00807       -1.10652
H          3.13228        0.51437        2.45155
H          3.55920       -1.17729        2.87882
H          1.85552       -0.71883        2.53957
H          3.68257        0.39095       -1.78607
H          3.73802        1.56759       -0.44259
H          2.39826        1.62607       -1.63163
