9
2,3-DICHLOROPROPENE.gamout	Energy:   -1036.8346657
C         -0.10275        0.00482        0.00001
C          1.10345        0.58742       -0.00001
C          2.46549       -0.05479       -0.00012
Cl         1.26349        2.35176       -0.00010
Cl         2.41488       -1.86290        0.00000
H         -1.02703        0.59533        0.00008
H         -0.17058       -1.09110        0.00008
H          3.03708        0.25280       -0.89707
H          3.03728        0.25292        0.89667
