29
2,3-DIMETHYL-3-ETHYLPENTANE.gamout	Energy:    -354.7528942
C          4.20448        4.11514        1.59372
C          2.90705        3.24344        1.82007
C          3.08901        1.93070        0.99228
C          1.64636        3.97543        1.24630
C          2.71864        2.90814        3.31431
C          4.06804        5.60005        1.98081
C          5.46383        3.54560        2.27697
C          2.08344        0.80032        1.25257
C          0.85305        4.91197        2.17224
H          4.38397        4.08723        0.49420
H          4.10722        1.52819        1.16520
H          3.05572        2.20868       -0.08389
H          0.93452        3.20606        0.88372
H          1.95940        4.52759        0.33396
H          3.50967        2.22486        3.67837
H          1.74723        2.41032        3.49518
H          2.74431        3.81665        3.94555
H          5.02233        6.12961        1.79097
H          3.83917        5.72133        3.05876
H          3.28591        6.12228        1.40042
H          6.36304        4.09362        1.93368
H          5.41278        3.66364        3.37826
H          5.63025        2.47391        2.05986
H          2.25950       -0.03986        0.55301
H          2.17516        0.39522        2.27903
H          1.03387        1.12749        1.11283
H          0.01352        5.37287        1.61521
H          0.41006        4.36383        3.02629
H          1.46285        5.73444        2.58826
