29
2,4,4-TRIMETHYLHEXANE.gamout	Energy:    -354.7542204
C          3.13979        2.71192        2.63281
C          4.30098        2.01715        1.85228
C          1.87430        1.96136        3.14161
C          5.18720        1.09732        2.74722
C          3.79019        1.17137        0.66509
C          5.17935        3.15233        1.26750
C          2.13986        0.72908        4.02652
C          0.84383        1.63594        2.04156
C          5.84901        1.73867        3.97403
H          3.59963        3.22044        3.50547
H          2.77044        3.53885        1.98775
H          1.38159        2.71080        3.80126
H          5.98381        0.67994        2.09358
H          4.58933        0.22433        3.07244
H          3.10877        1.75623        0.01686
H          4.64263        0.83694        0.04042
H          3.25121        0.26423        0.99841
H          4.61134        3.73130        0.51250
H          6.08090        2.73998        0.77150
H          5.51684        3.86474        2.04531
H          1.20124        0.39666        4.51230
H          2.52131       -0.12936        3.43972
H          2.87188        0.94810        4.82785
H         -0.11696        1.31855        2.49368
H          1.18197        0.81551        1.38175
H          0.63840        2.51997        1.40585
H          6.50157        2.58933        3.69691
H          6.48196        0.99771        4.50008
H          5.10689        2.11047        4.70721
