13
2,4,6-TRICHLOROPHENOL.gamout	Energy:   -1685.7877348
Cl         1.30402       -2.68759       -0.00009
Cl         1.26010        2.74494        0.00020
Cl        -3.45760       -0.02873       -0.00020
O          2.47643        0.02161        0.00010
C          1.12549        0.03396        0.00002
C          0.41008       -1.18708       -0.00003
C          0.36642        1.22795        0.00008
C         -0.99214       -1.21134       -0.00011
C         -1.03383        1.23312       -0.00000
C         -1.70197       -0.00042       -0.00010
H         -1.52134       -2.17199       -0.00020
H         -1.58876        2.17905        0.00001
H          2.79647        0.94900        0.00019
