22
2,4,6-TRIMETHYL_PHENOL.gamout	Energy:    -425.1336658
C          7.27972        3.06777       -0.91689
C          6.35072        1.90427       -0.64507
C          6.86029        0.65991       -0.21562
C          4.95821        2.02157       -0.80615
C          6.03082       -0.44258        0.05078
C          6.57737       -1.77237        0.50961
C          4.63607       -0.27871       -0.12448
O          3.84939       -1.37845        0.14388
C          4.08049        0.94769       -0.55294
C          2.58482        1.08565       -0.73040
H          8.04323        2.80920       -1.67945
H          6.72521        3.95183       -1.28407
H          7.82743        3.37145       -0.00063
H          7.94745        0.54058       -0.08199
H          4.53247        2.98092       -1.14112
H          6.30936       -2.58313       -0.19817
H          7.67868       -1.73757        0.59989
H          6.15416       -2.06473        1.49228
H          2.91425       -1.15472       -0.00865
H          2.18552        0.37584       -1.48864
H          2.03155        0.90659        0.21818
H          2.32066        2.10332       -1.07091
