32
2,4-DIMETHYLOCTANE.gamout	Energy:    -394.0491604
C          0.76675       18.15379        0.02941
C          1.79892       19.28889        0.05152
C          1.16473       20.68819        0.01868
C          2.19244       21.83048        0.03848
C          1.60029       23.25263       -0.10116
C          0.73238       23.62293        1.12222
C          2.72422       24.27587       -0.34349
C         -0.00374       24.98060        1.08014
C         -0.98095       25.07747       -0.10462
C         -0.73506       25.22846        2.41156
H          1.25272       17.15875        0.05358
H          0.08597       18.21730        0.90276
H          0.14113       18.20093       -0.88540
H          2.48950       19.18164       -0.81311
H          2.43313       19.19810        0.96028
H          0.47149       20.78642        0.88074
H          0.53510       20.78160       -0.89455
H          2.91510       21.66873       -0.79100
H          2.79129       21.77807        0.97615
H          0.94704       23.24389       -1.00308
H         -0.03129       22.83066        1.27573
H          1.38155       23.59905        2.02673
H          2.33252       25.29273       -0.53818
H          3.33972       23.98420       -1.21723
H          3.39829       24.34034        0.53672
H          0.75336       25.78685        0.96391
H         -1.52021       26.04537       -0.09803
H         -0.46385       24.99328       -1.08008
H         -1.74213       24.27039       -0.05620
H         -1.23619       26.21663        2.41860
H         -0.03445       25.19726        3.27006
H         -1.51304       24.45553        2.58416
