15
2,4-DIMETHYLTHIOPHENE.gamout	Energy:    -631.4047236
C         -4.98216       -0.73019       -1.28400
C         -5.19559       -1.88355       -2.23077
C         -3.68945       -0.17682       -0.97236
C         -5.99049       -0.06920       -0.60626
C         -3.71777        0.87873       -0.07940
S         -5.37259        1.21291        0.40067
C         -2.57169        1.68436        0.46144
H         -4.81729       -1.64505       -3.24640
H         -4.65659       -2.79102       -1.88803
H         -6.26749       -2.14039       -2.32031
H         -2.75171       -0.55579       -1.40442
H         -7.06845       -0.26435       -0.64174
H         -1.62007        1.31264        0.03706
H         -2.66130        2.75957        0.20314
H         -2.49992        1.61594        1.56640
