24
2,4-DIMETHYL-3-PENTANOL.gamout	Energy:    -351.3655980
C         -1.62917        1.63817       -0.22171
C         -1.33718        0.19825        0.23550
C         -2.51938       -0.72535       -0.10775
C         -0.01927       -0.36398       -0.35916
C          1.24347        0.51244       -0.14255
C          1.58154        0.72625        1.34328
C          2.44493       -0.06802       -0.90742
O          0.20059       -1.71537        0.08278
H         -0.85995        2.35937        0.11269
H         -1.68969        1.69375       -1.32858
H         -2.60177        1.98135        0.18116
H         -1.21992        0.20389        1.34381
H         -2.69598       -0.73938       -1.20335
H         -2.33033       -1.76498        0.21552
H         -3.45014       -0.37141        0.37709
H         -0.16382       -0.46927       -1.45695
H          1.01701        1.50513       -0.58749
H          0.74750        1.18768        1.90658
H          1.84428       -0.23072        1.84103
H          2.46079        1.39038        1.45068
H          2.22382       -0.16606       -1.98876
H          3.33441        0.58360       -0.80150
H          2.70814       -1.07388       -0.52635
H          0.29372       -1.71020        1.05299
