29
2,4-DIMETHYLHEPTANE.gamout	Energy:    -354.7595975
C          4.36785        2.75390        3.09176
C          3.00617        3.48723        2.97793
C          5.34335        2.82814        1.88612
C          2.08433        2.91607        1.87543
C          3.13167        5.01515        2.83296
C          6.26418        4.06279        1.93092
C          6.19265        1.54507        1.80173
C          1.69020        1.44026        2.04158
C          0.72303        0.94855        0.95618
H          4.15352        1.68576        3.29968
H          4.89561        3.12408        3.99783
H          2.49237        3.29614        3.94750
H          4.74043        2.88754        0.95320
H          1.15718        3.52997        1.85450
H          2.55448        3.06021        0.87730
H          3.50284        5.30036        1.82795
H          2.14548        5.50236        2.96475
H          3.82241        5.44106        3.58677
H          5.70123        5.01321        1.94581
H          6.93864        4.08570        1.05158
H          6.90001        4.03526        2.84040
H          6.89839        1.58364        0.94832
H          5.55781        0.64549        1.67900
H          6.79243        1.41093        2.72612
H          2.59958        0.80416        2.03679
H          1.22667        1.30106        3.04269
H          0.45906       -0.11730        1.10010
H         -0.21870        1.53413        0.96450
H          1.17007        1.04996       -0.05360
