15
2,5-DIMETHYLTHIOPHENE.gamout	Energy:    -631.4049720
C         -3.70099        0.86761       -0.09781
C         -2.57644        1.72437        0.40695
S         -5.34063        1.06532        0.50467
C         -3.66802       -0.14311       -1.04070
C         -5.96808       -0.21744       -0.52122
C         -4.94336       -0.75351       -1.27896
C         -7.42135       -0.59252       -0.49609
H         -1.63514        1.43691       -0.09856
H         -2.75119        2.80227        0.20952
H         -2.42207        1.61078        1.49992
H         -2.74247       -0.44135       -1.55322
H         -5.10394       -1.57221       -1.99474
H         -7.60495       -1.41686       -1.21084
H         -7.74632       -0.93625        0.50775
H         -8.07748        0.25555       -0.78184
