24
2,7-DIMETHYLNAPHTHALENE.gamout	Energy:    -464.2050761
C          1.86587        3.30946        0.85652
C          0.56486        4.07951        0.85094
C          3.09962        3.95478        0.85530
C          1.84444        1.87825        0.86290
C          4.33142        3.23174        0.86018
C          3.01885        1.14165        0.86779
C          4.29144        1.78819        0.86656
C          5.60148        3.88583        0.85887
C          5.52622        1.07258        0.87126
C          6.79770        3.17326        0.86357
C          6.73945        1.74306        0.86981
C          8.14107        3.86662        0.86230
H         -0.04557        3.82622       -0.04057
H         -0.04922        3.83391        1.74212
H          0.73817        5.17155        0.84669
H          3.13664        5.05558        0.85040
H          0.87351        1.35942        0.86394
H          2.98335        0.04145        0.87261
H          5.62262        4.98709        0.85405
H          5.50267       -0.02801        0.87607
H          7.67927        1.16955        0.87351
H          8.73532        3.58570        1.75636
H          8.73870        3.57600       -0.02639
H          8.03310        4.96708        0.85615
