14
2-BROMOBUTANE.gamout	Energy:   -2731.8652247
C         -0.00516       -0.16232       -0.24992
C          1.51844       -0.05796       -0.17067
Br         2.08043        1.87658       -0.23005
C          2.12020       -0.69602        1.07400
C         -0.63091        0.30808       -1.56526
H         -0.44414        0.38523        0.61016
H         -0.24506       -1.23714       -0.08595
H          1.98412       -0.46805       -1.08788
H          1.89985       -1.78453        1.07127
H          1.68837       -0.25761        1.99443
H          3.21705       -0.56542        1.10790
H         -0.42023        1.37949       -1.74786
H         -1.72940        0.17260       -1.54804
H         -0.23418       -0.26811       -2.42566
