31
2-BUTYL-2-ETHYL-1,3-PROPANEDIOL.gamout	Energy:    -505.0994228
O          3.15333       -0.06643        0.33927
O          0.57622       -2.54995        0.02235
C          0.74374       -0.11721       -0.04748
C         -0.59182       -0.02969        0.74062
C          0.92177        1.04436       -1.06456
C          1.88057       -0.10288        1.00059
C          0.82478       -1.43628       -0.84735
C         -1.88083        0.00264       -0.09297
C         -3.14346        0.06477        0.78221
C          0.82676        2.46306       -0.48777
C         -4.44798        0.10144       -0.02351
H         -0.63855       -0.89789        1.42923
H         -0.55878        0.87243        1.38754
H          1.91098        0.92036       -1.54784
H          0.16877        0.92478       -1.87098
H          1.75975        0.78192        1.66545
H          1.79166       -1.01680        1.62606
H          1.83818       -1.51207       -1.29712
H          0.08219       -1.41510       -1.67693
H         -1.93617       -0.89907       -0.73905
H         -1.87385        0.87666       -0.77896
H         -3.08476        0.96056        1.43783
H         -3.15124       -0.81187        1.46513
H          0.97104        3.21244       -1.29000
H         -0.15890        2.66283       -0.02400
H          1.60777        2.64814        0.27481
H         -4.55128       -0.80112       -0.65940
H         -5.33371        0.14828        0.63995
H         -4.48186        0.98639       -0.69133
H          3.85200       -0.20880        0.99866
H          0.77968       -3.37054       -0.45553
