15
2-BUTANETHIOL.gamout	Energy:    -556.4528606
C          2.14501        2.77411        1.56101
C          0.75550        2.14845        1.36615
C          3.30470        1.90802        1.03434
C          3.49150        0.58777        1.78932
S          4.89404        2.87639        0.96833
H          2.18466        3.75765        1.05157
H          2.31762        2.98150        2.63972
H         -0.03312        2.82261        1.75354
H          0.54384        1.96777        0.29254
H          0.65226        1.18222        1.89804
H          3.12750        1.69172       -0.04149
H          4.31916       -0.00489        1.35813
H          3.72483        0.77767        2.85660
H          2.56961       -0.02769        1.74711
H          4.99873        3.08391        2.31295
