13
2-CHLOROPHENOL.gamout	Energy:    -766.7716266
Cl         2.35949       -1.02299        0.10481
O          1.53877        1.80475        0.18856
C          0.46808        0.96244        0.11722
C          0.70978       -0.43127        0.07033
C         -0.86553        1.41811        0.08846
C         -0.35849       -1.33745       -0.00316
C         -1.93370        0.51113        0.01486
C         -1.68284       -0.87081       -0.03117
H         -1.05986        2.50245        0.12465
H         -0.14013       -2.41347       -0.03815
H         -2.96556        0.89013       -0.00634
H         -2.51358       -1.58799       -0.08885
H          1.22803        2.72754        0.21426
