24
2-ETHYLNAPHTHALENE.gamout	Energy:    -464.1998217
C          7.72156        3.55873        1.72204
C          6.61526        2.92161        0.85672
C          5.39175        2.52284        1.65846
C          4.23846        3.30284        1.66757
C          5.41621        1.33324        2.45355
C          3.09537        2.95181        2.44843
C          4.32621        0.95811        3.22339
C          3.13664        1.74884        3.24915
C          1.90812        3.74648        2.46592
C          1.99317        1.39589        4.02755
C          0.81307        3.37641        3.23535
C          0.85490        2.19171        4.02289
H          7.35562        4.48087        2.21492
H          8.05401        2.86336        2.51796
H          8.60473        3.82206        1.10680
H          6.31794        3.63003        0.05680
H          7.02347        2.02452        0.34414
H          4.19749        4.21870        1.05700
H          6.32026        0.70502        2.44516
H          4.36187        0.03722        3.82505
H          1.87640        4.66200        1.85608
H          2.02731        0.47918        4.63583
H         -0.09283        4.00053        3.23797
H         -0.01830        1.90775        4.62850
