24
2-ETHYL-P-XYLENE.gamout	Energy:    -389.2364637
C          2.13633        5.56794        2.88572
C          2.54791        5.14976        1.45928
C          2.97247        3.69523        1.36410
C          2.02724        2.65726        1.13459
C          4.33031        3.35820        1.53522
C          0.55911        2.95421        0.91747
C          2.49287        1.32800        1.09461
C          4.79666        2.02816        1.50121
C          3.84828        1.01161        1.27498
C          6.25954        1.71059        1.72020
H          1.28882        4.96015        3.25878
H          1.83196        6.63323        2.91686
H          2.97830        5.42985        3.59221
H          3.38649        5.79390        1.12317
H          1.70912        5.34919        0.76156
H          5.05723        4.17081        1.70011
H          0.11287        3.50335        1.77149
H         -0.01766        2.02028        0.78416
H          0.39426        3.57959        0.01493
H          1.77140        0.51652        0.91062
H          4.17248       -0.03946        1.23268
H          6.53446        0.73362        1.27832
H          6.50249        1.66226        2.80321
H          6.91494        2.48517        1.27539
