16
2-ETHYL-1,3-BUTADIENE.gamout	Energy:    -234.4529832
C          4.20754        1.64608        2.00958
C          3.20652        2.08678        0.92117
C          1.77827        1.65361        1.20202
C          1.22801        0.59139        0.55689
C          0.98093        2.38541        2.20057
C          1.35145        3.50197        2.86921
H          4.23635        0.54154        2.08776
H          3.93217        2.04488        3.00455
H          5.22939        2.00052        1.76869
H          3.52122        1.66472       -0.05394
H          3.24409        3.19125        0.80825
H          0.20231        0.25673        0.77338
H          1.78764        0.02954       -0.20531
H         -0.02245        1.96834        2.39513
H          0.67141        3.98148        3.58696
H          2.33175        3.97921        2.72507
