21
2-HEXANOL.gamout	Energy:    -312.0825125
C          1.45592        3.78509        1.93335
C          2.18637        2.44202        1.80843
C          3.71695        2.57289        1.82937
C          4.44255        1.23017        1.67279
C          5.97070        1.34135        1.65965
C          6.65534        0.01179        1.32458
O          6.36835        1.82235        2.95725
H          1.71957        4.29572        2.88168
H          1.72533        4.46701        1.10117
H          0.35633        3.65271        1.91682
H          1.87654        1.93565        0.86798
H          1.86853        1.76913        2.63415
H          4.03872        3.25510        1.01105
H          4.03950        3.05383        2.77621
H          4.15388        0.53922        2.49459
H          4.12698        0.74446        0.72421
H          6.25775        2.09743        0.88785
H          6.37551       -0.76755        2.06086
H          6.36585       -0.33490        0.31238
H          7.75919        0.11873        1.33744
H          7.33825        1.89531        2.98170
