24
2-HYDROXYPROPYL_NICOTINATE.gamout	Energy:    -629.5931295
O         -1.06518        0.05831        0.10968
O         -3.31083       -1.35742       -0.95248
O         -0.21529        2.14160       -0.22144
N          2.65195       -1.72086        0.20195
C         -3.39118       -0.54512        0.22608
C         -2.40204        0.59872        0.03550
C         -4.81158       -0.01601        0.46029
C          1.28976        0.27553       -0.00027
C         -0.05017        0.94112       -0.05377
C          2.44684        1.07219       -0.10965
C          1.45192       -1.12085        0.14889
C          3.69953        0.45034       -0.05850
C          3.74806       -0.94706        0.10213
H         -3.06250       -1.13310        1.11417
H         -2.55003        1.07663       -0.95373
H         -2.52975        1.37044        0.81984
H         -5.14920        0.59251       -0.40128
H         -5.51908       -0.85946        0.58271
H         -4.86220        0.60267        1.37852
H         -3.78831       -2.19140       -0.80029
H          2.33499        2.15890       -0.23297
H          0.56708       -1.77126        0.21961
H          4.62775        1.03403       -0.14098
H          4.71790       -1.47012        0.15050
