20
2-METHYLQUINOLINE.gamout	Energy:    -440.9495018
C         -1.59701       -1.41094        1.56139
C         -0.56232       -0.33129        1.73566
N         -1.17057       -2.61729        1.20871
C         -2.98387       -1.11379        1.77586
C         -2.08217       -3.62256        1.04097
C         -3.92224       -2.11392        1.61159
C         -3.49584       -3.41979        1.23330
C         -1.61306       -4.91474        0.66302
C         -4.38788       -4.51113        1.04113
C         -2.50843       -5.95844        0.48388
C         -3.90236       -5.75683        0.67326
H         -0.58915        0.07304        2.76741
H          0.44293       -0.73795        1.53142
H         -0.76067        0.51363        1.04613
H         -3.28934       -0.09675        2.06765
H         -4.99376       -1.91795        1.76853
H         -0.53142       -5.04705        0.52216
H         -5.46543       -4.34850        1.18960
H         -2.14097       -6.95310        0.19258
H         -4.59852       -6.59409        0.52713
