18
2-METHYLBENZOFURAN.gamout	Energy:    -422.7123220
C         -1.86083        1.09340       -1.92693
C         -2.96987        0.63130       -1.05327
C         -3.19096       -0.51066       -0.32161
O         -4.02480        1.51812       -0.92630
C         -4.47820       -0.34749        0.32094
C         -4.94132        0.92726       -0.09346
C         -5.29312       -1.11032        1.18694
C         -6.15796        1.47933        0.30177
C         -6.52196       -0.57563        1.59835
C         -6.94795        0.70043        1.16197
H         -2.22334        1.28835       -2.95669
H         -1.42490        2.03897       -1.54523
H         -1.06567        0.32839       -1.97024
H         -2.51056       -1.36603       -0.25269
H         -4.97232       -2.10311        1.53213
H         -6.47128        2.47160       -0.04765
H         -7.17108       -1.15443        2.27274
H         -7.91532        1.09253        1.50133
