35
2-METHYLDECANE.gamout	Energy:    -433.3354484
C         -2.05240       -0.29089       -2.27400
C         -0.91818       -1.03296       -1.54914
C         -3.33310       -1.11807       -2.46060
C          0.32167       -0.15461       -1.32842
C         -4.51894       -0.34483       -3.07646
C          1.46458       -0.84688       -0.57161
C          2.68195        0.06129       -0.34090
C         -5.80828       -1.17457       -2.99821
C         -4.23909        0.09325       -4.52229
C          3.82978       -0.60684        0.43041
C          5.02966        0.32085        0.66109
H         -1.68111        0.05916       -3.26051
H         -2.30436        0.62857       -1.70036
H         -0.63518       -1.93999       -2.12782
H         -1.28715       -1.40095       -0.56634
H         -3.11631       -2.00862       -3.09235
H         -3.64720       -1.51618       -1.47183
H          0.01633        0.75892       -0.77114
H          0.69493        0.20497       -2.31317
H         -4.66541        0.57489       -2.46480
H          1.78196       -1.75522       -1.13059
H          1.08894       -1.21163        0.41030
H          2.35577        0.97283        0.20871
H          3.05968        0.42237       -1.32341
H         -5.71467       -2.10555       -3.59542
H         -6.67645       -0.61082       -3.39185
H         -6.03440       -1.46642       -1.95403
H         -3.35727        0.75785       -4.59086
H         -4.04880       -0.78911       -5.16867
H         -5.10380        0.64032       -4.94752
H          3.44744       -0.97047        1.40923
H          4.16134       -1.51500       -0.11910
H          5.83843       -0.18869        1.22104
H          4.73414        1.21904        1.24137
H          5.45535        0.67201       -0.30103
