25
2-METHYLTETRALIN.gamout	Energy:    -427.3224452
C          1.99988        2.06781        1.11558
C          0.54775        2.01783        1.60992
C          2.64467        3.43458        1.40507
C          2.86215        0.96651        1.75290
C          4.14043        3.49713        1.14318
C          4.27724        0.94637        1.15579
C          4.92028        2.31969        1.05402
C          4.77307        4.75202        1.01470
C          6.31082        2.43437        0.84122
C          6.15218        4.85263        0.80388
C          6.92724        3.68543        0.71655
H          2.00409        1.90696        0.01295
H          0.51714        2.14518        2.71149
H          0.07189        1.04699        1.36839
H         -0.07206        2.81861        1.15927
H          2.45314        3.68740        2.47418
H          2.13912        4.22761        0.81699
H          2.38127       -0.02564        1.62062
H          2.91173        1.14412        2.85039
H          4.23159        0.49724        0.13785
H          4.93439        0.27570        1.74640
H          4.16176        5.66504        1.08400
H          6.92271        1.52103        0.77167
H          6.62341        5.83850        0.70646
H          8.01163        3.75658        0.55247
