13
2-METHACRYLAMIDE.gamout	Energy:    -286.4278043
C          3.31355        1.31233        1.88005
N          3.99386        2.24442        2.62714
O          3.89891        0.46678        1.19730
C          1.80091        1.36111        1.94837
C          1.09718        0.79628        0.74177
C          1.15387        1.80965        3.04794
H          5.01133        2.24353        2.57272
H          3.52975        3.05377        3.03286
H          1.34011        1.38173       -0.16894
H          0.00103        0.78822        0.88205
H          1.45418       -0.23439        0.54723
H          0.05491        1.79866        3.10652
H          1.68774        2.15290        3.94653
