15
2-METHYL-1-BUTENE.gamout	Energy:    -196.3954375
C          1.15920        1.18446        0.16374
C          0.54679       -0.17318       -0.09970
C          1.23713       -1.31628        0.10206
C         -0.88322       -0.18994       -0.60965
C         -1.91984        0.35146        0.39483
H          1.13735        1.81148       -0.75342
H          0.58965        1.74309        0.93570
H          2.20756        1.10021        0.50460
H          0.78725       -2.30069       -0.09876
H          2.27400       -1.30777        0.47067
H         -0.93932        0.41904       -1.54018
H         -1.15085       -1.22660       -0.89723
H         -1.91557       -0.24531        1.32826
H         -1.71818        1.40645        0.66542
H         -2.94048        0.30951       -0.03408
