27
2-METHYL-1-HEPTANOL.gamout	Energy:    -390.6474835
O          2.83243        1.32086        5.42477
C          1.08750        1.18551        2.05786
C          2.21970        1.06410        3.10117
C         -0.15592        0.31434        2.29599
C         -1.19597        0.43131        1.17227
C          1.75192        1.49034        4.49892
C          3.45601        1.86713        2.66145
C         -2.44321       -0.44023        1.38428
C         -3.47738       -0.31467        0.25835
H          1.51647        0.92313        1.06661
H          0.78441        2.25383        1.97393
H          2.50900       -0.00871        3.17357
H          0.15703       -0.74841        2.39939
H         -0.64068        0.58264        3.25882
H         -0.72081        0.16237        0.20265
H         -1.50457        1.49562        1.06967
H          1.42100        2.55702        4.46668
H          0.87817        0.87662        4.81203
H          4.28495        1.75527        3.38326
H          3.80830        1.52851        1.66731
H          3.21409        2.94796        2.58367
H         -2.12934       -1.50187        1.48684
H         -2.91450       -0.17168        2.35490
H         -3.04233       -0.61082       -0.71795
H         -4.36045       -0.95681        0.44296
H         -3.83453        0.73070        0.15956
H          2.54645        1.62231        6.30299
