19
2-METHYL-2,4-HEXADIENE.gamout	Energy:    -273.7517446
C         33.98480       29.90892       -0.01318
C         32.77511       29.27482       -0.00740
C         35.30490       29.29736        0.00011
C         31.48916       30.06503       -0.02436
C         32.60393       27.77563        0.01548
C         36.47086       29.99490       -0.00717
C         37.84447       29.39133        0.00540
H         33.97566       31.01340       -0.03024
H         35.36345       28.19558        0.01707
H         31.67278       31.15563       -0.04073
H         30.87243       29.80338       -0.91206
H         30.86439       29.83228        0.86592
H         33.56101       27.22550        0.02623
H         32.01985       27.46160        0.90774
H         32.02375       27.43403       -0.86916
H         36.41971       31.09885       -0.02385
H         37.80633       28.28463        0.02229
H         38.43031       29.70163       -0.88698
H         38.42654       29.72866        0.89042
