24
2-METHYL-2-HEPTENE.gamout	Energy:    -314.2540525
C          0.70805        1.44067        1.03240
C          2.01078        1.42255        1.84256
C          2.77077        2.75749        1.78792
C          4.06334        2.80529        2.63882
C          5.12651        1.82168        2.21651
C          6.27691        2.07766        1.54486
C          7.23519        0.96286        1.19224
C          6.71035        3.45245        1.09163
H          0.17859        0.46919        1.08807
H          0.90722        1.65343       -0.03779
H          0.01501        2.22298        1.40426
H          2.66548        0.60807        1.46772
H          1.78636        1.17554        2.90373
H          3.02721        2.98912        0.73119
H          2.09439        3.57080        2.13155
H          4.46025        3.83935        2.61748
H          3.79132        2.60280        3.69930
H          4.93283        0.76689        2.47947
H          7.39196        0.90255        0.09315
H          8.23722        1.14173        1.63994
H          6.87202       -0.02146        1.54316
H          6.82591        3.48014       -0.01356
H          6.00170        4.24998        1.37608
H          7.70617        3.71216        1.51220
