16
2-METHYL-2,3-PENTADIENE.gamout	Energy:    -234.4422182
C          0.97020        0.81552        0.17155
C          2.34700        0.19239        0.02774
C          2.89711       -0.01739       -1.15995
C          3.44563       -0.22668       -2.34438
C          3.30095       -1.48581       -3.17159
C          3.05981       -0.17337        1.31660
H          1.02606        1.75311        0.76508
H          0.28546        0.13084        0.71669
H          0.52157        1.04931       -0.81071
H          4.06730        0.57835       -2.78226
H          2.66647       -2.23303       -2.65977
H          4.29272       -1.94471       -3.36915
H          2.84792       -1.26093       -4.16022
H          2.45631       -0.89759        1.90491
H          3.19589        0.72519        1.95633
H          4.05270       -0.61915        1.12619
