29
2-METHYLOCTANE.gamout	Energy:    -354.7650082
C          3.08399        1.46392        0.32672
C          2.86150        0.09188       -0.32678
C          4.05735       -0.83476       -0.06205
C          1.54774       -0.57144        0.13767
C          0.26742        0.17618       -0.25656
C         -1.02285       -0.51397        0.20987
C         -2.29766        0.23889       -0.19528
C         -3.59576       -0.43492        0.27159
C         -4.86267        0.32550       -0.13879
H          4.02184        1.93190       -0.03354
H          2.25939        2.16975        0.11320
H          3.16501        1.36200        1.42926
H          2.78464        0.24169       -1.42791
H          4.17368       -1.02432        1.02532
H          3.92696       -1.81416       -0.56249
H          5.00338       -0.38780       -0.42626
H          1.50346       -1.60003       -0.28090
H          1.58010       -0.69767        1.24391
H          0.28644        1.20739        0.15547
H          0.24552        0.29251       -1.36298
H         -1.05876       -1.54847       -0.19849
H         -0.99520       -0.62807        1.31634
H         -2.25791        1.27444        0.21043
H         -2.31490        0.35082       -1.30227
H         -3.63570       -1.47069       -0.13070
H         -3.56744       -0.54371        1.37778
H         -4.93587        0.41769       -1.24188
H         -5.77983       -0.18564        0.21500
H         -4.86923        1.35260        0.28043
