26
2-METHYL-3-ETHYLPENTANE.gamout	Energy:    -315.4740917
C          3.60995        2.44337        1.20888
C          2.41447        2.57535        2.20013
C          1.55279        3.82207        1.88435
C          1.55914        1.29070        2.30962
C          4.47282        1.19508        1.47458
C          4.51769        3.68718        1.22796
C          0.37392        4.07783        2.83563
C          0.85854        0.84850        1.01857
H          3.18797        2.34987        0.18254
H          2.85995        2.73387        3.21091
H          2.20776        4.71306        1.90812
H          1.17991        3.75253        0.83937
H          2.19524        0.46398        2.68432
H          0.79714        1.44634        3.10078
H          5.34235        1.17773        0.78912
H          4.86453        1.19984        2.51292
H          3.91958        0.24860        1.32791
H          4.89858        3.87263        2.25409
H          5.39658        3.54366        0.56824
H          4.00573        4.60502        0.88641
H          0.71001        4.09877        3.89242
H         -0.41854        3.30861        2.75230
H         -0.09650        5.05566        2.61563
H          1.58233        0.60848        0.21505
H          0.17967        1.63089        0.62689
H          0.24983       -0.05829        1.19596
