12
2-METHYLTHIOPHENE.gamout	Energy:    -592.1146986
C          4.74949        2.68009        0.83062
C          3.32257        2.21574        0.78407
C          2.16464        2.95252        0.96311
S          2.92352        0.53847        0.46846
C          0.96555        2.17840        0.84827
C          1.21504        0.84831        0.58061
H          5.27279        2.50792       -0.13200
H          4.77975        3.76474        1.04450
H          5.33040        2.16168        1.62066
H          2.17886        4.03050        1.17329
H         -0.04586        2.59097        0.95935
H          0.49971        0.03115        0.44259
