23
2-METHYLHEXANE.gamout	Energy:    -276.1935722
C          2.72368        1.26680        0.84790
C          1.68607        1.96606        1.75358
C          3.98298        0.71399        1.54105
C          1.12998        1.02584        2.83219
C          0.54770        2.55198        0.90246
C          4.83826        1.77864        2.24563
C          6.19833        1.25649        2.72983
H          3.04215        1.98759        0.06386
H          2.21329        0.43824        0.30910
H          2.19285        2.81505        2.26303
H          3.70548       -0.08057        2.26780
H          4.60771        0.20636        0.77427
H          1.92330        0.65040        3.50633
H          0.63957        0.14615        2.36589
H          0.37550        1.54014        3.45873
H          0.02390        1.75094        0.34034
H         -0.20448        3.06691        1.53232
H          0.93047        3.28554        0.16627
H          5.00089        2.62780        1.54649
H          4.28186        2.20241        3.10829
H          6.78856        2.06037        3.20998
H          6.08522        0.43757        3.46954
H          6.79619        0.85799        1.88474
