27
2-OCTANOL.gamout	Energy:    -390.6530737
H          0.39083       -4.69398        1.38596
H         -0.82287       -3.85368       -1.30928
H          0.18358       -7.04947        0.49677
H         -1.42231       -6.28941        0.70838
H         -0.70358       -6.42497       -0.93578
O          1.42590       -4.79116       -0.42766
H          2.02224       -5.48955       -0.10671
C         -0.47657       -6.23625        0.13215
C         -1.31113        1.32990       -0.85339
H         -1.70383       -3.82758        0.24002
C          0.18638       -4.86575        0.30063
C         -0.46494        0.21103       -0.23010
H         -0.04557       -2.18796        1.17984
H         -0.69496        2.95615        0.48545
C         -1.01052       -1.19846       -0.50119
H          0.57603        0.28052       -0.61642
H         -0.39164        0.37177        0.86856
C         -0.14034       -2.32251        0.07920
H         -2.04207       -1.27735       -0.09050
H         -1.10977       -1.34769       -1.59925
C         -0.69476       -3.72357       -0.21248
H          0.88797       -2.24919       -0.33028
C         -0.74821        2.73368       -0.60003
H          0.27845        2.83194       -1.00841
H         -1.37359        3.51698       -1.07185
H         -1.39399        1.15455       -1.94816
H         -2.34876        1.26899       -0.45855
