19
2-PHENYLETHANOL.gamout	Energy:    -385.8285172
C          6.30941        1.71382       -0.93755
C          6.74260        0.44045       -0.53821
C          4.96907        2.08851       -0.75460
C          4.06617        1.18337       -0.17579
C          4.50569       -0.08837        0.22207
C          5.84879       -0.47775        0.04815
C          6.31367       -1.85805        0.45289
C          6.16073       -2.87949       -0.67938
O          6.62511       -4.14027       -0.19276
H          7.01934        2.42321       -1.38722
H          7.79493        0.15203       -0.67313
H          4.62994        3.08623       -1.06069
H          3.01635        1.47533       -0.02653
H          3.79970       -0.79158        0.68668
H          7.38037       -1.83431        0.75552
H          5.73782       -2.22367        1.32750
H          5.09189       -2.93716       -0.99051
H          6.75052       -2.54808       -1.56541
H          6.54026       -4.80670       -0.89529
