24
3,3-DIMETHYL-2-ETHYL-1-BUTENE.gamout	Energy:    -314.2465783
C          0.28016       36.47621       -1.17106
C          1.31551       36.06926       -0.10337
C          1.98362       37.26500        0.56770
C          3.41273       37.63378        0.13478
C          1.30322       37.94463        1.51540
C          4.37258       36.50351        0.58373
C          3.48995       37.78453       -1.40279
C          3.89569       38.95126        0.76709
H         -0.19229       35.58580       -1.62973
H         -0.51535       37.09619       -0.71645
H          0.74980       37.07151       -1.97680
H          2.07483       35.40787       -0.56514
H          0.81009       35.45609        0.67084
H          1.70705       38.83104        2.01835
H          0.29459       37.62800        1.82254
H          5.41128       36.73886        0.27654
H          4.35465       36.39004        1.68431
H          4.10644       35.52791        0.13485
H          4.52597       38.03184       -1.70674
H          2.82897       38.59939       -1.75456
H          3.20466       36.85451       -1.92962
H          3.92654       38.88846        1.87147
H          4.92034       39.18217        0.41790
H          3.24607       39.80357        0.48891
