23
3,3-DIMETHYLPENTANE.gamout	Energy:    -276.1927648
C          3.30349        2.63165        2.53110
C          2.45019        1.67271        1.65942
C          1.63975        0.67061        2.52360
C          1.50289        2.53273        0.79958
C          3.35722        0.85284        0.71920
C          4.31607        1.98646        3.48639
C          0.69391        1.26664        3.57345
H          2.62105        3.28213        3.11672
H          3.84393        3.31824        1.84500
H          2.35066       -0.01834        3.02611
H          1.05133        0.02919        1.83338
H          0.83581        1.90036        0.18075
H          0.86793        3.19024        1.42362
H          2.08435        3.18293        0.11667
H          2.74748        0.21386        0.05038
H          3.98210        1.51074        0.08291
H          4.03338        0.18724        1.28882
H          3.82201        1.36666        4.26010
H          5.03943        1.34138        2.95141
H          4.89801        2.76655        4.01395
H          1.23826        1.83672        4.35150
H         -0.05008        1.94907        3.11868
H          0.13295        0.46316        4.08843
