24
3,4,4-TRIMETHYL-CIS-2-PENTENE.gamout	Energy:    -314.2448280
C          2.87971        1.99593        2.26721
C          1.99689        1.85855        1.24364
C          2.49800        2.07183        3.77291
C          4.35227        2.07564        1.91265
C          0.49583        1.74232        1.21847
C          1.80485        0.76054        4.21526
C          3.74054        2.25443        4.67658
C          1.57250        3.28406        4.03286
H          2.44561        1.82325        0.23459
H          4.81496        3.02338        2.25894
H          4.93785        1.25620        2.37971
H          4.50417        2.01132        0.81842
H          0.18930        0.81214        0.69398
H          0.01765        1.73548        2.21142
H          0.05009        2.57944        0.63887
H          0.87440        0.57135        3.65299
H          2.47443       -0.10706        4.05886
H          1.54943        0.80367        5.29408
H          3.42779        2.30272        5.73810
H          4.28077        3.19141        4.44830
H          4.44800        1.41128        4.57748
H          1.31786        3.35269        5.11073
H          2.07537        4.22638        3.74247
H          0.62813        3.22004        3.46599
