21
3,4-DIMETHYL-1-PENTENE.gamout	Energy:    -274.9600206
C          2.02850        2.07939        2.82635
C          2.19066        3.43703        2.06817
C          3.63331        3.89168        2.10919
C          1.59067        3.43826        0.65600
C          0.55886        1.75749        3.14034
C          2.70982        0.90940        2.10145
C          4.41898        4.22154        1.06689
H          2.55029        2.21735        3.79915
H          1.61717        4.17735        2.67454
H          4.06578        3.94410        3.12486
H          0.53065        3.12310        0.66529
H          2.14045        2.75780       -0.02330
H          1.63256        4.45313        0.21700
H         -0.02406        1.57405        2.21594
H          0.06929        2.58334        3.69370
H          0.48495        0.84406        3.76150
H          2.20562        0.68285        1.14064
H          2.67387       -0.00848        2.71906
H          3.77131        1.13220        1.88149
H          5.46216        4.53511        1.21884
H          4.05681        4.19341        0.02868
