12
3,4-DICHLORO-1-BUTENE.gamout	Energy:   -1076.1191075
C          0.65112        1.25440       -0.25340
C          2.00043        0.62129       -0.13246
C          2.52559       -0.04850       -1.40044
Cl         3.25656        1.93027        0.26153
C         -0.36583        1.00120        0.58904
Cl         1.51762       -1.50276       -1.81420
H          0.52035        1.95926       -1.09181
H          2.03667       -0.07995        0.72204
H          2.48497        0.63848       -2.26528
H          3.56019       -0.40390       -1.25689
H         -1.34924        1.47698        0.46189
H         -0.25171        0.30368        1.43298
