14
3,4-DICHLOROANILINE.gamout	Energy:   -1206.4290063
C          6.33625        1.86985       -0.69150
C          6.85743        0.60157       -0.34807
C          4.92889        2.03013       -0.72750
N          7.18630        2.94517       -0.93064
C          6.00489       -0.47267       -0.05367
C          4.60489       -0.30755       -0.09358
Cl         6.72762       -2.01645        0.36110
C          4.08440        0.95482       -0.43317
Cl         3.50638       -1.62492        0.26805
H          7.94364        0.44388       -0.30446
H          4.49689        3.00908       -0.98553
H          6.80381        3.74216       -1.43623
H          8.15974        2.74423       -1.15531
H          2.99431        1.08862       -0.46424
