26
3,4-DIMETHYLHEXANE.gamout	Energy:    -315.4742196
C          3.15715        0.60299        1.17966
C          3.28605        2.05337        1.67711
C          0.71255        2.43893        1.69975
C          2.08612        2.89777        1.18836
C          4.65461        2.68849        1.27592
C          5.85171        1.84543        1.77346
C          7.22849        2.30168        1.26865
C          4.78328        4.13889        1.77336
H          3.89922       -0.06845        1.64689
H          2.15950        0.18216        1.40601
H          3.29842        0.55573        0.07963
H          3.25422        2.04093        2.79259
H          0.69968        2.39099        2.80790
H         -0.07974        3.14643        1.38648
H          0.42589        1.44035        1.31702
H          2.09124        2.90757        0.07537
H          2.22804        3.95028        1.49924
H          4.69006        2.69777        0.16067
H          5.71372        0.79080        1.46820
H          5.84009        1.84290        2.88646
H          8.01888        1.59692        1.59234
H          7.24767        2.34139        0.16023
H          7.51151        3.30398        1.64415
H          4.62985        4.18566        2.87181
H          5.78515        4.55604        1.55911
H          4.04872        4.81329        1.29863
