14
3,4-DICHLOROPHENYL_ISOCYANATE.gamout	Energy:   -1318.4827111
C          6.83206        4.16223       -1.28316
N          6.91389        2.98707       -0.97218
C          6.12230        1.87964       -0.67802
O          6.88503        5.30509       -1.58548
C          6.76153        0.66676       -0.35437
C          4.71024        1.93972       -0.69450
C          6.00640       -0.47576       -0.04945
C          3.96359        0.79757       -0.39011
Cl         6.85177       -1.95372        0.34737
C          4.59544       -0.41781       -0.06584
Cl         3.62005       -1.81829        0.30550
H          7.85715        0.61762       -0.34041
H          4.20365        2.88292       -0.94655
H          2.86701        0.84253       -0.40287
