15
3,4-XYLENOL.gamout	Energy:   -1190.3929559
Cl         7.34327        3.27621       -0.82218
C          6.31024        1.86787       -0.57747
C          6.89622        0.60435       -0.34035
C          4.92181        2.06038       -0.62836
C          8.38984        0.41358       -0.28889
C          6.00702       -0.47544       -0.15308
C          4.08137        0.95475       -0.43605
C          4.61324       -0.32079       -0.19714
Cl         2.33801        1.18454       -0.49701
H          4.50609        3.05778       -0.81466
H          8.86627        0.71889       -1.24242
H          8.84533        1.03513        0.50823
H          8.64507       -0.64384       -0.09529
H          6.42603       -1.47595        0.03418
H          3.94666       -1.17988       -0.04776
