19
3,4-DIMETHYL-1-PENTYNE.gamout	Energy:    -273.7086978
C          0.98963        0.07358        0.06898
C          2.21321        0.06423        0.03323
C          3.68273        0.08853        0.03164
C          4.24255        0.76288       -1.26035
C          5.77750        0.81444       -1.25689
C          3.73458        0.04939       -2.52075
C          4.18767        0.74377        1.33748
H         -0.08982        0.07226        0.09637
H          4.03431       -0.97038        0.02216
H          3.85613        1.80630       -1.26807
H          6.20828       -0.20365       -1.15586
H          6.17860        1.43883       -0.43778
H          6.15104        1.23968       -2.20888
H          4.11091       -0.99425       -2.55595
H          4.08838        0.56443       -3.43461
H          2.63017        0.01421       -2.54889
H          3.94155        1.82344        1.35122
H          5.28235        0.62979        1.44043
H          3.71006        0.27314        2.21622
