24
3,5-DIMETHYL-TRANS-2-HEXENE.gamout	Energy:    -314.2530311
C          0.53192        0.50758        0.41361
C          2.03155        0.56973        0.48262
C          2.92070        0.72665       -0.52868
C          4.41361        0.78108       -0.22866
C          5.12284       -0.58670       -0.05406
C          5.01396       -1.47865       -1.29808
C          6.59361       -0.37417        0.33321
C          2.53879        0.90812       -1.97658
H          0.07482        1.33718        0.99522
H          0.14614       -0.43212        0.86523
H          0.13753        0.56852       -0.61772
H          2.45286        0.49576        1.50162
H          4.57370        1.36844        0.69866
H          4.92995        1.33941       -1.04018
H          4.61309       -1.11087        0.78443
H          5.47766       -0.98750       -2.17948
H          3.96102       -1.70972       -1.54646
H          5.53744       -2.44164       -1.14152
H          7.14247        0.14803       -0.47819
H          7.10424       -1.34040        0.51379
H          6.68875        0.23880        1.25057
H          1.45621        0.79461       -2.16391
H          3.07563        0.18658       -2.62619
H          2.84122        1.91867       -2.32660
