26
3-BUTOXYPROPANE-1,2-DIOL.gamout	Energy:    -501.6913304
C         -0.14580       -0.45510       -1.44008
C         -0.68386       -1.80709       -0.96153
C          0.22747       -2.97751       -1.33325
O         -0.11698       -0.47985       -2.87000
O         -0.87919       -1.66528        0.44765
O          1.53323       -2.76500       -0.83603
C          2.45359       -3.78380       -1.20426
C          3.83122       -3.43432       -0.65020
C          4.89997       -4.48625       -0.98154
C          6.29315       -4.12645       -0.44756
H         -0.82534        0.33761       -1.05858
H          0.86502       -0.29756       -1.00742
H         -1.65697       -1.98266       -1.47887
H          0.23237       -3.07905       -2.44492
H         -0.20219       -3.92338       -0.91537
H          0.26942        0.35116       -3.19276
H         -1.24029       -2.49500        0.80460
H          2.49280       -3.87638       -2.31784
H          2.11017       -4.77119       -0.80626
H          3.75004       -3.30934        0.45014
H          4.13300       -2.44560       -1.05562
H          4.95686       -4.62506       -2.08329
H          4.58914       -5.47026       -0.56851
H          6.64012       -3.15655       -0.85844
H          7.04095       -4.89461       -0.72449
H          6.29533       -4.03969        0.65822
