9
3-CHLOROPROPENE.gamout	Energy:    -577.3261473
C         -1.34857       -0.12937        0.42446
C         -0.21836        0.34807       -0.12766
C          1.10648       -0.33310       -0.01874
Cl         2.33660        0.72860        0.84194
H         -2.31042        0.38817        0.29838
H         -1.35295       -1.05633        1.01920
H         -0.23690        1.28442       -0.70978
H          1.04622       -1.27335        0.55850
H          1.55415       -0.53571       -1.01066
