24
3-ETHYL-3-HEXENE.gamout	Energy:    -314.2519564
C          3.61140        2.96695        4.38339
C          3.55648        3.71660        3.03769
C          3.06928        2.84418        1.89491
C          1.56055        2.81478        1.73521
C          3.90218        2.13065        1.10052
C          0.98538        1.86821        0.68047
C          5.40336        2.04201        1.18349
C          5.89861        0.60809        1.46013
H          2.62863        2.52045        4.63208
H          4.35149        2.14402        4.34863
H          3.89063        3.65019        5.20950
H          2.87581        4.58940        3.13683
H          4.55562        4.13748        2.81172
H          1.11311        2.57216        2.72602
H          1.22034        3.85451        1.52499
H          3.44991        1.50721        0.31190
H          1.27448        0.81783        0.88280
H         -0.11961        1.91966        0.67170
H          1.34187        2.12953       -0.33514
H          5.84425        2.39133        0.22282
H          5.79292        2.72210        1.96527
H          5.50969        0.23743        2.42878
H          5.55644       -0.09548        0.67422
H          7.00493        0.56698        1.49263
