29
3-ETHYLHEPTANE.gamout	Energy:    -354.7609125
C          3.52648        1.93298        2.07634
C          2.15822        2.42025        2.60925
C          2.31182        3.73800        3.40337
C          1.12600        2.56526        1.46938
C          4.45708        1.32938        3.14219
C          1.09439        4.14251        4.24460
C          0.65523        1.24367        0.84852
C          5.74017        0.68676        2.58519
C          6.69835        1.66262        1.88808
H          4.02699        2.78741        1.57081
H          3.36534        1.16731        1.28846
H          1.77517        1.64546        3.31459
H          2.56062        4.54962        2.68417
H          3.19175        3.65197        4.07256
H          0.23647        3.10726        1.84994
H          1.55994        3.22068        0.68159
H          3.89044        0.55680        3.70408
H          4.73853        2.10431        3.88818
H          1.28300        5.09013        4.78590
H          0.18959        4.29592        3.62474
H          0.85494        3.36777        5.00118
H          0.18103        0.59191        1.61060
H          1.48427        0.67059        0.38964
H         -0.09559        1.42322        0.05424
H          6.27393        0.18939        3.42102
H          5.45516       -0.12290        1.87832
H          6.27555        2.06100        0.94477
H          7.65666        1.16889        1.63339
H          6.92723        2.52879        2.54233
