19
3-ETHYL-1-PENTYNE.gamout	Energy:    -273.7084455
C          1.02028       -0.05738        0.02538
C          2.24222       -0.03044       -0.04027
C          3.70794        0.02563       -0.11310
C          4.19298        0.40468       -1.53604
C          3.74746       -0.56758       -2.63241
C          4.26317        0.97504        0.98472
C          5.78390        0.91015        1.16313
H         -0.05727       -0.09087        0.08614
H          4.08471       -1.00133        0.10843
H          5.29998        0.45620       -1.51616
H          3.83365        1.42994       -1.76553
H          4.12233       -1.59238       -2.43476
H          4.13410       -0.25314       -3.62068
H          2.64334       -0.62101       -2.69835
H          3.76933        0.71786        1.94315
H          3.94357        2.01024        0.74305
H          6.11589       -0.12518        1.38207
H          6.10290        1.54811        2.00970
H          6.33327        1.25916        0.26698
