24
3-METHYL-CIS-3-HEPTENE.gamout	Energy:    -314.2533921
C          2.03909        0.86383       -0.68632
C          2.15179       -0.57283       -0.13643
C          2.63069       -0.64005        1.30223
C          1.80949       -0.84718        2.36162
C          0.31281       -1.03010        2.36144
C         -0.16618       -2.28472        3.12204
C         -1.69233       -2.43401        3.13157
C          4.11833       -0.43867        1.49404
H          1.70481        0.85854       -1.74251
H          3.01027        1.39509       -0.64586
H          1.30931        1.45335       -0.09749
H          2.85837       -1.14997       -0.77303
H          1.16966       -1.07342       -0.23674
H          2.27856       -0.86410        3.36220
H         -0.07962       -1.05762        1.32453
H         -0.15797       -0.13575        2.83295
H          0.21378       -2.24657        4.16610
H          0.29427       -3.18597        2.66483
H         -2.18281       -1.58251        3.64709
H         -2.00488       -3.36211        3.64824
H         -2.09344       -2.47228        2.09812
H          4.69892       -1.22447        0.96340
H          4.40707       -0.45486        2.56167
H          4.45188        0.53178        1.06877
