32
3-METHYL-4-ETHYLHEPTANE.gamout	Energy:    -394.0428820
C          0.70291       21.13836        1.43553
C          1.81524       22.16142        1.17836
C          1.68965       22.88999       -0.17131
C          2.81816       23.92340       -0.44073
C          3.50827       23.75527       -1.82799
C          2.34771       25.37871       -0.21782
C          4.23989       22.40441       -1.99123
C          2.55591       23.97808       -3.01430
C          5.39053       22.14154       -1.00967
C          1.87545       25.70060        1.20747
H          0.84014       20.64307        2.41470
H         -0.29537       21.61976        1.43482
H          0.69075       20.34857        0.65705
H          2.80154       21.65157        1.21134
H          1.83423       22.90318        2.00504
H          0.69747       23.38895       -0.22847
H          1.67143       22.11960       -0.97086
H          3.61576       23.74369        0.31266
H          4.28906       24.54846       -1.87097
H          3.18643       26.05895       -0.47805
H          1.53084       25.61803       -0.93127
H          3.50216       21.57512       -1.92509
H          4.63540       22.36172       -3.02745
H          3.10737       23.92554       -3.97426
H          2.05748       24.96403       -2.97216
H          1.76236       23.20411       -3.04877
H          5.93902       21.22119       -1.28751
H          6.11788       22.97843       -1.00767
H          5.03393       22.00561        0.03000
H          1.65910       26.78134        1.31593
H          0.94996       25.15343        1.47591
H          2.65057       25.43775        1.95553
