20
3-METHYLISOQUINOLINE.gamout	Energy:    -440.9473488
C         -2.62358       -1.50619        1.43908
C         -2.62309       -2.77141        2.26144
C         -1.64306       -1.21687        0.49408
N         -3.66441       -0.64730        1.68554
C         -1.69524       -0.00368       -0.25187
C         -3.73389        0.48419        1.00615
C         -2.78995        0.89138        0.01399
C         -0.73143        0.36743       -1.23571
C         -2.89071        2.11828       -0.70082
C         -0.85340        1.56948       -1.91740
C         -1.93668        2.45053       -1.65063
H         -3.56056       -3.33663        2.08648
H         -1.76349       -3.42835        2.03138
H         -2.60185       -2.52057        3.34095
H         -0.81910       -1.92330        0.31690
H         -4.58604        1.14972        1.23330
H          0.10769       -0.31185       -1.44410
H         -3.72986        2.79939       -0.49315
H         -0.10715        1.85084       -2.67435
H         -2.01329        3.39748       -2.20252
