19
3-METHYLCYCLOHEXENE.gamout	Energy:    -273.7680638
C          0.59658        2.44738        1.25770
C          2.01050        2.55177        1.85514
C          2.88077        3.56850        1.09329
C          2.68740        1.19809        1.90687
C          4.35188        3.49033        1.52404
C          3.98373        0.99097        1.59839
C          4.93553        2.10002        1.22325
H          0.63772        2.06044        0.21928
H         -0.04165        1.76339        1.85080
H          0.10444        3.43951        1.23514
H          1.89493        2.91613        2.90455
H          2.80901        3.35727        0.00330
H          2.47762        4.59068        1.24233
H          2.06002        0.34002        2.19806
H          4.95175        4.27351        1.01939
H          4.42228        3.69298        2.61437
H          4.38609       -0.03422        1.62861
H          5.19700        2.01369        0.14305
H          5.89717        1.96064        1.76161
