16
3-METHYL-TRANS-1,3-PENTADIENE.gamout	Energy:    -234.4511137
C          1.95147        0.59916        4.13173
C          2.87838        1.09233        3.08762
C          2.45542        1.83734        2.03044
C          4.34178        0.71805        3.25625
C          0.61512        0.78375        4.22490
C          3.30512        2.38242        0.92125
H          2.43203        0.00636        4.92957
H          1.38147        2.07666        1.96415
H          4.70069        0.07365        2.42749
H          4.99521        1.61308        3.27980
H          4.50367        0.16327        4.19851
H          0.04706        0.35677        5.06261
H          0.04311        1.35882        3.48150
H          4.36489        2.08438        1.00907
H          2.93575        2.04099       -0.07017
H          3.26492        3.49363        0.89521
