26
3-METHYLHEPTANE.gamout	Energy:    -315.4785418
C          4.62908        2.65433        1.96153
C          3.34217        1.96554        1.45535
C          2.11458        2.86171        1.72578
C          3.17093        0.56121        2.05580
C          5.94303        2.03369        1.46364
C          0.79794        2.36021        1.12195
C          7.20142        2.76120        1.96364
C          8.50282        2.16219        1.41763
H          4.60555        3.71977        1.64524
H          4.62128        2.66855        3.07452
H          3.43880        1.85821        0.34958
H          2.00160        2.99139        2.82499
H          2.33153        3.87393        1.32342
H          3.06379        0.61931        3.15942
H          2.27306        0.04935        1.65958
H          4.03875       -0.08859        1.83559
H          6.00340        0.96656        1.76764
H          5.94131        2.03389        0.35085
H         -0.02133        3.08716        1.28629
H          0.89884        2.20934        0.02749
H          0.47435        1.39690        1.56266
H          7.14098        3.83510        1.68195
H          7.22075        2.74189        3.07520
H          8.52928        2.20884        0.30979
H          9.39153        2.70235        1.79758
H          8.60810        1.09671        1.70771
