12
3-METHYLTHIOPHENE.gamout	Energy:    -592.1143829
C          3.48669        0.54366        0.91243
C          2.81231        1.88958        0.85682
C          1.38849        2.06508        0.75593
C          3.46834        3.10849        0.89319
C          1.00034        3.38809        0.71793
S          2.36936        4.45425        0.80628
H          3.12316       -0.05033        1.77600
H          3.27508       -0.04711       -0.00255
H          4.58403        0.64113        1.00629
H          0.67726        1.22927        0.71286
H          4.54577        3.29093        0.96722
H         -0.01130        3.79978        0.64384
