18
3-PENTANOL.gamout	Energy:    -272.7960803
C          2.57503       -0.04898       -0.01515
C          1.50840        1.04871        0.08539
C          1.47230        1.97710       -1.14015
O          0.25773        0.36274        0.27095
C          4.02156        0.45984       -0.02025
C          0.40004        3.07327       -1.07439
H          2.41883       -0.73228        0.84366
H          2.37377       -0.64779       -0.92919
H          1.72446        1.66988        0.99138
H          2.47036        2.45093       -1.24643
H          1.31855        1.34583       -2.04156
H         -0.43943        1.01882        0.44252
H          4.73378       -0.38694       -0.01073
H          4.25119        1.06884       -0.91725
H          4.23439        1.08389        0.87216
H          0.45908        3.73873       -1.95677
H         -0.62503        2.64935       -1.06256
H          0.51896        3.70783       -0.17145
