19
4,4-DIMETHYL-1-PENTYNE.gamout	Energy:    -273.7118298
C         -0.00096       19.99344        0.03408
C          1.53744       19.94438        0.00915
C          2.06023       21.41496       -0.01655
C          2.05278       19.22745        1.26985
C          2.01190       19.19939       -1.25135
C          3.51554       21.56020       -0.04122
C          4.73275       21.68208       -0.06171
H         -0.42108       18.96953        0.05236
H         -0.40263       20.50836       -0.86132
H         -0.37229       20.52798        0.93096
H          1.63398       21.92975       -0.90479
H          1.66264       21.95223        0.87176
H          3.15875       19.19758        1.29030
H          1.67908       18.18561        1.30308
H          1.70932       19.74048        2.19011
H          1.63506       19.68937       -2.17111
H          3.11658       19.17266       -1.30839
H          1.64181       18.15570       -1.24816
H          5.80640       21.79573       -0.08025
