24
4,5-DIMETHYL-TRANS-2-HEXENE.gamout	Energy:    -314.2555706
C          1.11394        0.93221        0.00943
C          2.57276        0.61696        0.19215
C          3.56965        0.67285       -0.72508
C          4.99407        0.32423       -0.33984
C          5.59135       -0.92419       -1.03867
C          7.07413       -1.09175       -0.67084
C          4.78914       -2.18740       -0.70180
C          3.37309        1.09400       -2.16125
H          0.79187        1.73525        0.70667
H          0.48270        0.04791        0.24334
H          0.86566        1.25773       -1.01739
H          2.85634        0.30188        1.21189
H          5.65042        1.19364       -0.57085
H          5.04832        0.17240        0.75911
H          5.53805       -0.76448       -2.13837
H          7.19434       -1.24972        0.42116
H          7.66784       -0.19805       -0.94844
H          7.51934       -1.96577       -1.18581
H          4.82969       -2.39702        0.38722
H          5.19373       -3.07112       -1.23205
H          3.72365       -2.07550       -0.97835
H          2.34706        1.44176       -2.37205
H          3.59419        0.26092       -2.86205
H          4.07347        1.91508       -2.42425
