16
4-CHLORO-3-METHYLPHENOL.gamout	Energy:    -806.0642424
Cl        -3.09750        0.89001        0.17245
O          2.67126       -0.40870       -0.29707
C         -0.97313       -0.85601       -0.02429
C          0.40791       -1.10728       -0.13586
C         -1.38019        0.49669        0.03331
C          1.34754       -0.06165       -0.18797
C         -1.96828       -1.98892        0.03047
C         -0.45669        1.54873       -0.01724
C          0.91510        1.27535       -0.12824
H          0.77791       -2.14122       -0.18554
H         -2.55720       -1.95533        0.96899
H         -2.69389       -1.92132       -0.80481
H         -1.45433       -2.96466       -0.02813
H         -0.81223        2.58567        0.03095
H          1.64177        2.10333       -0.16799
H          3.22112        0.39412       -0.32353
