29
4-ETHYLHEPTANE.gamout	Energy:    -354.7614779
C          4.20154        1.36821        3.23651
C          4.22582        2.41328        4.37228
C          3.34708        1.96551        5.56395
C          5.65427        2.79971        4.82596
C          4.89385        1.79718        1.93442
C          1.83418        2.01204        5.29576
C          6.48229        1.65581        5.42639
C          4.69902        0.79890        0.78596
C          0.98692        1.71774        6.53994
H          4.64569        0.41508        3.59769
H          3.14275        1.12985        3.00592
H          3.76956        3.34388        3.96454
H          3.63568        0.93790        5.87626
H          3.56673        2.61896        6.43752
H          5.56794        3.61948        5.57011
H          6.20664        3.23516        3.96761
H          5.98004        1.93895        2.11217
H          4.50264        2.79263        1.63227
H          1.57858        3.02239        4.90935
H          1.56106        1.29943        4.48960
H          6.00590        1.23532        6.33328
H          7.49016        2.00886        5.71617
H          6.61668        0.82752        4.70340
H          3.62387        0.65523        0.55249
H          5.11622       -0.19743        1.03846
H          5.19996        1.14728       -0.13682
H         -0.09557        1.81284        6.32676
H          1.23411        2.42675        7.35542
H          1.15963        0.69268        6.92798
