20
4-HYDROXYPHENYLACETAMIDE.gamout	Energy:    -515.1575590
O         -3.20814        0.01413        1.22179
O          2.88430        1.22787       -3.14988
N          2.61911        0.42966       -1.02808
C         -0.16682       -0.14690       -1.68221
C          0.93388       -0.15533       -2.72173
C         -0.47763       -1.28867       -0.91835
C         -0.91077        1.02889       -1.43891
C         -1.48647       -1.26206        0.05836
C         -1.92097        1.07184       -0.47324
C         -2.21152       -0.07871        0.28444
C          2.22702        0.58589       -2.33111
H          1.22484       -1.20003       -2.96052
H          0.60086        0.30560       -3.67017
H          0.07101       -2.22588       -1.09457
H         -0.68730        1.93445       -2.02193
H         -1.71232       -2.16823        0.64154
H         -2.49703        1.98863       -0.29078
H          3.45524        0.91830       -0.71376
H          1.99856        0.01603       -0.33381
H         -3.31453       -0.84262        1.67155
