24
4-METHYL-CIS-3-HEPTENE.gamout	Energy:    -314.2536278
C          0.57329       -0.04207        1.14151
C          1.78383       -0.10631        0.19075
C          2.73826       -1.22658        0.51452
C          4.08377       -1.16739        0.67043
C          4.89284        0.10505        0.52888
C          5.61556        0.23742       -0.82993
C          6.43440        1.52720       -0.94379
C          4.88568       -2.40796        0.98729
H         -0.12581        0.76198        0.84024
H          0.89271        0.15301        2.18432
H          0.00954       -0.99726        1.13706
H          2.31228        0.86759        0.18914
H          1.40842       -0.24127       -0.84954
H          2.26930       -2.22007        0.63111
H          5.65221        0.14433        1.34171
H          4.24617        0.99368        0.66951
H          4.85636        0.19938       -1.63911
H          6.27622       -0.63962       -0.99330
H          5.79484        2.41835       -0.78257
H          6.89854        1.62310       -1.94389
H          7.24694        1.55894       -0.18976
H          4.24597       -3.30734        1.05998
H          5.43167       -2.29403        1.94911
H          5.65713       -2.59940        0.21199
