24
4-METHYL-3-ETHYL-CIS-2-PENTENE.gamout	Energy:    -314.2500471
C          0.80525       29.76089       -0.40775
C          1.11390       30.81835        0.67186
C          0.96075       32.26464        0.21186
C          2.01046       32.87073       -0.39730
C         -0.35856       32.96952        0.50275
C          2.12396       34.26949       -0.94202
C         -1.59336       32.21344       -0.02598
C         -0.50988       33.26173        2.01224
H          1.01154       28.74104       -0.02655
H         -0.25258       29.79466       -0.73103
H          1.43293       29.92655       -1.30462
H          2.15644       30.66835        1.02013
H          0.47349       30.63221        1.55894
H          2.93158       32.26811       -0.50336
H         -0.33019       33.95072       -0.01228
H          1.16837       34.82596       -0.93812
H          2.85675       34.86249       -0.35233
H          2.50625       34.26015       -1.98551
H         -2.51016       32.81101        0.14493
H         -1.51202       32.01601       -1.11127
H         -1.73172       31.24419        0.49377
H         -1.42567       33.85561        2.20320
H          0.35785       33.82935        2.39660
H         -0.59216       32.32664        2.60199
