16
4-METHYL-1,3-PENTADIENE.gamout	Energy:    -234.4607911
C          1.62068        0.64998        0.96385
C          1.97277        1.79825        1.87348
C          3.19919        1.97912        2.44386
C          0.85092        2.77222        2.12670
C          4.37261        1.13317        2.29641
C          5.56562        1.37091        2.89464
H          1.28659        1.02718       -0.02702
H          0.76677        0.07114        1.37801
H          2.45575       -0.05119        0.79607
H          3.32798        2.86381        3.09161
H          1.15727        3.59529        2.79825
H          0.48796        3.21708        1.17428
H         -0.02498        2.26016        2.58225
H          4.28465        0.24029        1.65557
H          5.71695        2.24560        3.54618
H          6.42229        0.69888        2.74952
