24
4-METHYL-3-ETHYL-TRANS-2-PENTENE.gamout	Energy:    -314.2514848
C          0.54675       29.56157       -0.17533
C          1.57347       30.56071        0.38984
C          1.16598       32.01614        0.18704
C          1.87565       30.25763        1.87270
C          2.00137       32.86394       -0.45960
C         -0.17456       32.46809        0.74576
C          1.80027       34.33192       -0.71111
C         -1.29278       32.57737       -0.30981
H          0.35921       29.73862       -1.25131
H          0.91173       28.52275       -0.05814
H         -0.42265       29.63019        0.35841
H          2.52167       30.42055       -0.17225
H          2.65279       30.93903        2.26646
H          2.23538       29.21654        1.99108
H          0.97204       30.36687        2.50639
H          2.94673       32.44255       -0.84324
H         -0.49729       31.76813        1.54262
H         -0.05298       33.44924        1.24846
H          0.89489       34.73307       -0.21992
H          2.67125       34.91521       -0.34578
H          1.71579       34.54926       -1.79762
H         -2.24466       32.90442        0.15378
H         -1.02861       33.30604       -1.10016
H         -1.47059       31.60518       -0.80706
