22
4-OCTYNE.gamout	Energy:    -313.0047081
C          4.32960        1.06075        1.88313
C          3.10521        0.99755        1.84562
C          1.63965        0.92708        1.78776
C          5.79308        1.13652        1.92782
C          0.98716        2.10897        1.03139
C          6.39827        2.21967        1.00465
C          1.25708        3.47290        1.67252
C          7.92541        2.28990        1.10682
H          1.33952       -0.02776        1.30573
H          1.23351        0.88631        2.82316
H          6.22033        0.14505        1.65869
H          6.11943        1.32929        2.97437
H          1.35299        2.10598       -0.01636
H         -0.10626        1.92329        0.98258
H          6.09352        2.01230       -0.04165
H          5.95225        3.20115        1.26686
H          2.34367        3.68223        1.72079
H          0.85981        3.51689        2.70708
H          0.77997        4.28544        1.09198
H          8.39388        1.32459        0.82569
H          8.24845        2.53100        2.13993
H          8.33652        3.06928        0.43703
