24
5,5-DIMETHYL-1-HEXENE.gamout	Energy:    -314.2469583
C         -0.29893       -0.31149        0.08398
C         -1.84107       -0.47435        0.00012
C          0.23602        1.12436        0.27350
C         -2.14863       -1.97063       -0.20558
C         -2.51366       -0.00377        1.30420
C         -2.41101        0.31980       -1.19164
C          1.73383        1.17442        0.40818
C          2.56487        1.83471       -0.41865
H          0.14882       -0.73815       -0.83803
H          0.06961       -0.94271        0.92136
H         -0.22478        1.55801        1.18785
H         -0.07358        1.76499       -0.57670
H         -3.24075       -2.14644       -0.27051
H         -1.68916       -2.34958       -1.14000
H         -1.75855       -2.57904        0.63482
H         -3.60558       -0.18953        1.27208
H         -2.36818        1.08033        1.47462
H         -2.10650       -0.54383        2.18202
H         -1.92415        0.01927       -2.14083
H         -3.49839        0.13620       -1.29746
H         -2.27087        1.41063       -1.06858
H          2.16877        0.61019        1.25422
H          3.65253        1.82385       -0.26546
H          2.18309        2.41294       -1.27527
