24
5,5-DIMETHYL-CIS-2-HEXENE.gamout	Energy:    -314.2516015
C          3.16935        2.62513        2.93437
C          2.08395        1.94687        2.03901
C          4.49064        1.90932        3.03816
C          1.74318        0.53831        2.56483
C          0.81700        2.82066        2.08352
C          2.59326        1.85620        0.58927
C          5.70852        2.36685        2.66783
C          6.04951        3.69148        2.04491
H          2.73884        2.72974        3.95567
H          3.32390        3.65607        2.55898
H          4.45927        0.90640        3.49585
H          0.90234        0.09731        1.99261
H          2.60449       -0.15047        2.47577
H          1.44347        0.57516        3.63091
H          0.41700        2.90157        3.11415
H          1.02638        3.84649        1.71998
H          0.01867        2.39262        1.44559
H          1.83548        1.38794       -0.06931
H          2.81952        2.86300        0.18577
H          3.52084        1.25546        0.53021
H          6.56845        1.69834        2.84782
H          6.54484        3.55179        1.05999
H          5.16921        4.34207        1.89161
H          6.77781        4.24657        2.67424
