21
5-METHYL-CIS-2-HEXENE.gamout	Energy:    -274.9651413
C          0.95769        2.57176        3.14494
C          1.76387        1.99180        1.97162
C          0.82951        1.39537        0.91014
C          2.79878        0.92982        2.43023
C          3.87050        1.43989        3.35587
C          5.20180        1.49245        3.12580
C          5.94584        1.05498        1.89465
H          0.19226        3.28625        2.78296
H          1.60252        3.11033        3.86527
H          0.43219        1.76303        3.69399
H          2.33449        2.82324        1.50063
H          0.12533        2.15852        0.52633
H          0.22592        0.56423        1.33180
H          1.39942        0.99468        0.04860
H          3.25815        0.48023        1.52796
H          2.23980        0.10846        2.93678
H          3.52424        1.79755        4.34009
H          5.83090        1.90019        3.93529
H          5.28927        0.60612        1.12690
H          6.72848        0.30800        2.15014
H          6.47681        1.91186        1.42705
