22
ACENAPHTHENE.gamout	Energy:    -462.9956739
C          3.29788        3.00967        1.73640
C          4.07763        3.98907        2.40449
C          1.92823        3.37307        1.65059
C          3.83308        1.79682        1.21171
C          3.16905        5.14061        2.82133
C          5.43821        3.75790        2.55883
C          1.73768        4.73094        2.31919
C          1.05216        2.49934        1.01929
C          2.90385        0.92282        0.56900
C          5.23634        1.59216        1.38831
C          6.00482        2.55145        2.04421
C          1.55888        1.27577        0.48302
H          3.18837        5.29542        3.92076
H          3.50086        6.10164        2.37400
H          6.08560        4.48299        3.06774
H          1.32286        5.47873        1.61036
H          1.01164        4.67350        3.15782
H         -0.01736        2.72913        0.92425
H          3.25160       -0.02979        0.14268
H          5.70838        0.67543        1.00518
H          7.08564        2.37843        2.17228
H          0.85744        0.58850       -0.01634
