9
ACETAMIDE.gamout	Energy:    -209.0858203
C          2.48432        2.52846        0.83402
C          1.95780        1.10950        0.65589
N          0.63589        0.92228        0.97995
O          2.66630        0.18780        0.25296
H          2.97382        2.84310       -0.10652
H          1.70344        3.26468        1.10401
H          3.26027        2.52125        1.62391
H          0.24392       -0.01468        0.89650
H          0.04008        1.67092        1.32408
