7
ACETALDEHYDE.gamout	Energy:    -153.7276518
C          0.59764        0.83065        0.70499
C          2.01890        1.10102        1.12760
O          2.60103        2.16035        0.97674
H          0.00133        0.52831        1.59219
H          0.14887        1.71823        0.22465
H          0.57840       -0.03644        0.01090
H          2.54635        0.22813        1.61688
