11
ALLYLAMINE.gamout	Energy:    -173.1350565
C          0.02252        0.08591       -0.25232
C          1.14349        0.59237        0.29248
C          2.50453       -0.04971        0.21402
N          3.49753        0.90399       -0.30054
H         -0.94671        0.59527       -0.15010
H          0.03491       -0.86379       -0.81118
H          1.10802        1.55241        0.83677
H          2.82582       -0.32900        1.24221
H          2.42688       -1.00086       -0.36680
H          4.44442        0.51250       -0.27508
H          3.29483        1.15324       -1.27476
