23
ANETHOLE.gamout	Energy:    -463.1717828
C          1.84970        2.76579        1.84559
C          2.36949        1.85253        2.70106
C          3.55828        1.99771        3.55791
C          0.62759        2.55442        0.99752
C          4.37852        3.14899        3.56296
C          3.92879        0.94513        4.43417
C          5.50463        3.25558        4.38881
C          5.04675        1.03145        5.26608
C          5.84632        2.19105        5.24938
O          6.92316        2.19870        6.09510
C          7.77127        3.33961        6.08598
H          2.34358        3.74789        1.74454
H          1.85623        0.87801        2.78399
H         -0.15992        3.30475        1.22705
H          0.85886        2.67145       -0.08341
H          0.19752        1.54669        1.15098
H          4.13569        3.99379        2.90468
H          3.31228        0.03336        4.45532
H          6.11127        4.16962        4.35745
H          5.32142        0.20945        5.94031
H          8.21514        3.50263        5.08020
H          7.21821        4.25289        6.39418
H          8.57705        3.13586        6.81270
