15
BENZYL_CHLORIDE.gamout	Energy:    -730.8800612
C          1.36980       -0.00267       -0.93527
C         -0.05554       -0.00092       -0.47200
C         -0.73754        1.21339       -0.25487
C         -2.07275        1.21560        0.17184
C         -2.74351        0.00097        0.38787
C         -2.07415       -1.21453        0.17346
C         -0.73929       -1.21399       -0.25414
Cl         2.56616        0.00094        0.47162
H          1.61600       -0.90551       -1.52109
H          1.61643        0.89691       -1.52590
H         -0.21279        2.16489       -0.42167
H         -2.59336        2.16941        0.33722
H         -3.79014        0.00187        0.72143
H         -2.59562       -2.16761        0.34033
H         -0.21546       -2.16615       -0.41945
