27
BENZYL_NICOTINATE.gamout	Energy:    -706.7402839
O         -0.01367        0.48564       -0.07121
O          1.24983        2.37705        0.03628
N          3.28201       -2.00435       -0.00943
C         -2.44887        0.47206       -0.06597
C         -1.20833        1.32651       -0.12528
C         -2.97499       -0.10833       -1.23857
C         -3.13920        0.28979        1.14894
C          2.35218        0.23608        0.02524
C         -4.15931       -0.85683       -1.19723
C         -4.32647       -0.45644        1.19445
C          1.16756        1.15689       -0.00047
C         -4.83811       -1.02745        0.01964
C          3.64909        0.78285        0.09577
C          2.23062       -1.16961       -0.02639
C          4.74938       -0.08134        0.11445
C          4.51246       -1.46654        0.05977
H         -1.16347        2.04644        0.71422
H         -1.16739        1.90922       -1.06736
H         -2.45427        0.03277       -2.19607
H         -2.75108        0.74963        2.06852
H         -4.56509       -1.30163       -2.11783
H         -4.86106       -0.58790        2.14663
H         -5.77207       -1.60175        0.04956
H          3.77144        1.87385        0.13327
H          1.23326       -1.63071       -0.08011
H          5.77574        0.30784        0.17000
H          5.35690       -2.17846        0.07273
