16
BENZYL_ALCOHOL.gamout	Energy:    -346.5397110
C          1.95049       -0.00147       -0.56979
C          0.46421       -0.00054       -0.30127
C         -0.23858        1.21187       -0.16729
C         -1.61650        1.21520        0.09601
C         -2.30772        0.00046        0.22631
C         -1.61751       -1.21469        0.09650
C         -0.23970       -1.21220       -0.16684
O          2.64611        0.00124        0.68708
H          2.22221       -0.90196       -1.16734
H          2.22244        0.89667       -1.17089
H          0.30336        2.16268       -0.27002
H         -2.15472        2.16837        0.19911
H         -3.38717        0.00096        0.42728
H         -2.15641       -2.16745        0.20021
H          0.30144       -2.16337       -0.26898
H          3.60416        0.00078        0.51366
