23
BENZOCAINE.gamout	Energy:    -554.4423123
O         -2.23762       -0.35677       -0.04409
O         -1.87169        1.88825       -0.03774
N          4.12766       -0.54236        0.00072
C          0.00765        0.37953       -0.02727
C          0.97747        1.40637       -0.01854
C          0.44886       -0.96260       -0.02655
C          2.78367       -0.24067       -0.00848
C          2.33936        1.10713       -0.00932
C          1.80899       -1.27160       -0.01737
C         -1.43069        0.74409       -0.03664
C         -3.65825       -0.10172       -0.05250
C         -4.36534       -1.44590       -0.05996
H          0.63455        2.45122       -0.01911
H         -0.29525       -1.76912       -0.03328
H          3.07943        1.91960       -0.00253
H          2.13265       -2.32236       -0.01686
H         -3.91988        0.50293        0.83919
H         -3.90863        0.50694       -0.94473
H         -5.46181       -1.29473       -0.06646
H         -4.09276       -2.03323       -0.95785
H         -4.10385       -2.03728        0.83854
H          4.44910       -1.50521        0.00149
H          4.83386        0.18709        0.00719
