15
BENZYL_DICHLORIDE.gamout	Energy:   -1190.3821415
Cl         8.29957        3.45646        0.43432
C          7.24046        2.99348       -0.97512
Cl         8.28760        2.70455       -2.43937
C          6.34814        1.82628       -0.66418
C          6.85954        0.55676       -0.33225
C          4.95398        2.01632       -0.70786
C          5.98804       -0.50112       -0.04957
C          4.08189        0.95370       -0.42383
C          4.59555       -0.30842       -0.09356
H          6.65687        3.89871       -1.20946
H          7.94620        0.40137       -0.29648
H          4.54849        3.00454       -0.96628
H          6.40364       -1.48395        0.20710
H          2.99576        1.11608       -0.46141
H          3.91271       -1.14130        0.12928
