14
BENZOYL_BROMIDE.gamout	Energy:   -2918.8792441
C          6.29599        1.87534       -0.59808
C          6.82982        0.58731       -0.35083
C          4.91206        2.06762       -0.63329
C          4.04515        0.98157       -0.42303
C          4.56869       -0.29777       -0.17692
C          5.95528       -0.49872       -0.13987
C          8.31171        0.48794       -0.33600
Br         9.06459       -1.35254        0.01653
O          9.08618        1.38647       -0.51331
H          6.98777        2.71126       -0.76047
H          4.50557        3.07043       -0.82588
H          2.95713        1.13308       -0.45099
H          3.89060       -1.14585       -0.01258
H          6.36886       -1.49654        0.05216
