15
BENZOIC_ACID.gamout	Energy:    -420.5494199
C          6.28883        1.86243       -0.72280
C          6.84023        0.63472       -0.29969
C          4.90031        2.02278       -0.79867
C          5.98261       -0.43113        0.04662
C          8.32867        0.52506       -0.23904
C          4.04888        0.95967       -0.45311
C          4.59172       -0.26476       -0.03134
O          8.77042       -0.69905        0.18116
O          9.10452        1.42408       -0.53004
H          6.97141        2.68021       -0.98814
H          4.47968        2.98195       -1.12919
H          6.40896       -1.38639        0.37603
H          2.95862        1.08605       -0.51278
H          3.92767       -1.09682        0.23929
H          9.75051       -0.65028        0.18017
