24
BETA_D-FRUCTOPYRANOSE.gamout	Energy:    -686.7472495
C         -2.73612        2.21385       -1.39320
O         -2.77317        0.77928       -1.40866
C         -2.19181        2.79286       -2.69887
C         -1.85350        2.70384       -0.23263
H         -3.78132        2.54557       -1.22746
O         -0.83459        2.37349       -2.89442
H         -2.25857        3.90102       -2.69112
H         -2.75420        2.40395       -3.56695
C         -0.37579        2.37957       -0.51056
O         -2.24027        2.14245        1.02243
H         -1.96738        3.80282       -0.13175
H         -0.25012        1.27455       -0.46401
O          0.48069        3.01595        0.44303
C          0.08154        2.82906       -1.91842
C          1.45021        2.23932       -2.32136
O          0.16239        4.24882       -1.98237
H         -1.99141        0.46991       -1.90870
H          0.45852        4.54236       -1.09637
O          1.53285        0.82354       -2.18844
H          2.23953        2.75626       -1.73856
H          1.58749        2.48336       -3.39073
H          1.85138        0.61073       -1.29521
H         -2.44189        1.19950        0.84706
H          0.07073        2.89885        1.32218
