5
BROMOMETHANE.gamout	Energy:   -2614.0020892
H          0.00247        0.98469       -0.00536
C          1.10490        0.99841        0.01985
H          1.48666        2.03280       -0.00612
H          1.48619        0.45963        0.90339
Br         1.75863        0.07341       -1.58182
