5
BROMOTRICHLOROMETHANE.gamout	Energy:   -3992.4904603
C          0.98818        0.84332       -0.00817
Cl         0.11671        2.40844       -0.00501
Cl         2.75524        1.13954       -0.00390
Br         0.49344       -0.18540        1.60540
Cl         0.53659       -0.09359       -1.46654
