5
BROMODICHLOROMETHANE.gamout	Energy:   -3532.9999286
Br        -1.82477        0.00166        0.14472
Cl         0.90334        1.47594        0.15902
Cl         0.90071       -1.47765        0.15881
C          0.06410       -0.00006       -0.39621
H          0.07086       -0.00000       -1.49776
