5
BROMOCHLOROMETHANE.gamout	Energy:   -3073.5027420
C          0.85532        0.00759       -0.00012
Cl         2.44787        0.82073        0.00010
Br        -0.65960        1.24947        0.00010
H          0.77774       -0.60411       -0.91398
H          0.77771       -0.60440        0.91354
