5
BROMODIFLUOROMETHANE.gamout	Energy:   -2812.3418201
C          1.12481        2.15203        0.45728
Br         2.68696        2.87291        1.41935
F          0.60323        3.10352       -0.35087
F          1.49926        1.09854       -0.30291
H          0.37456        1.83680        1.20790
