8
BROMOCHLOROACETIC_ACID.gamout	Energy:   -3261.9519645
Br         1.18404        1.79269       -0.57157
Cl         1.51200       -1.17621        0.37738
O         -1.22476        0.12802        0.88388
O         -1.73082       -0.42875       -1.26058
C          0.57832       -0.08148       -0.68940
C         -0.92106       -0.14806       -0.39817
H          0.74932       -0.39089       -1.73215
H         -2.19908        0.06346        0.97565
