5
BROMOTRIFLUOROMETHANE.gamout	Energy:   -2911.5190222
Br        -1.08498       -0.00001        0.00017
C          0.87546        0.00002       -0.00052
F          1.33572        0.00003        1.25956
F          1.33685       -1.09117       -0.62997
F          1.33694        1.09118       -0.62994
