8
BROMOETHANE.gamout	Energy:   -2653.2911893
C         -0.10774       -0.25647       -0.00361
C          1.40448       -0.12546       -0.00359
Br         1.97984        1.77628       -0.00360
H         -0.37686       -1.33352       -0.00295
H         -0.55330        0.21386       -0.90012
H         -0.55339        0.21493        0.89229
H          1.86892       -0.56334       -0.90485
H          1.86890       -0.56328        0.89770
