25
BUTYRIC_ANHYDRIDE.gamout	Energy:    -538.6186400
O          4.90777        1.45579        2.04531
C          3.64721        0.84410        2.16531
C          2.55440        1.86652        1.95357
O          3.50672       -0.33796        2.36413
C          6.05064        0.94676        2.68758
C          2.42319        2.85448        3.13426
C          7.29543        1.36499        1.93610
O          6.00040        0.32354        3.71978
C          1.29932        3.87288        2.91548
C          7.52380        2.89271        1.90881
C          8.80288        3.27677        1.15572
H          1.61095        1.30828        1.80707
H          2.77483        2.42986        1.02300
H          3.38777        3.38147        3.27644
H          2.23615        2.28131        4.06527
H          7.20839        0.98857        0.89498
H          8.14925        0.85392        2.41964
H          1.47626        4.48394        2.00722
H          1.22289        4.56428        3.77563
H          0.31683        3.37335        2.79762
H          7.57397        3.26645        2.95220
H          6.64876        3.38228        1.43733
H          9.70244        2.82373        1.61896
H          8.94366        4.37411        1.15393
H          8.76286        2.93993        0.10026
