26
BUTYL_NICOTINATE.gamout	Energy:    -593.7075300
O          0.84577        0.07339        0.00122
O         -0.06362        2.15754       -0.00382
N         -2.80567       -1.82035        0.00343
C          3.19142       -0.46905        0.00354
C          4.63791        0.05145        0.00456
C          2.17179        0.66099        0.00190
C          5.68030       -1.07316        0.00582
C         -0.19478        0.94125       -0.00132
C         -1.51554        0.23473       -0.00075
C         -2.70271        0.99175       -0.00349
C         -1.62920       -1.17327        0.00265
C         -3.93230        0.32394       -0.00277
C         -3.93018       -1.08249        0.00074
H          3.02673       -1.11313       -0.88620
H          3.02516       -1.11218        0.89369
H          4.79352        0.70374        0.89103
H          4.79501        0.70294       -0.88226
H          2.27052        1.31134        0.89486
H          2.27203        1.31009       -0.89178
H          5.57241       -1.72015        0.89995
H          5.57375       -1.72064       -0.88811
H          6.71051       -0.66824        0.00647
H         -2.63992        2.08840       -0.00612
H         -0.72234       -1.79603        0.00491
H         -4.88031        0.87987       -0.00486
H         -4.88230       -1.64227        0.00143
