24
CAFFEINE.gamout	Energy:    -679.9474748
C         -0.89196       -0.22996        0.19688
C         -0.08635       -1.41025        0.36624
C         -0.37158        1.06492        0.23365
N         -2.25483       -0.06241       -0.02318
N          0.96966        1.30173        0.43774
N         -1.34201        2.00509        0.04793
N          1.28553       -1.07327        0.57133
O         -0.48331       -2.58183        0.34549
C          1.84869        0.22290        0.61572
C          1.48016        2.67235        0.47124
C          2.23178       -2.17735        0.75942
O          3.05527        0.37986        0.80208
C         -2.46011        1.28520       -0.10280
C         -3.25448       -1.11443       -0.14611
H          2.56834        2.61887        0.64022
H          1.26550        3.18163       -0.48729
H          0.99282        3.23963        1.28662
H          3.01126       -2.15539       -0.02483
H          2.73305       -2.09428        1.74189
H          1.64965       -3.11018        0.70040
H         -3.45763        1.70509       -0.27470
H         -4.23873       -0.64081       -0.30427
H         -3.01692       -1.77380       -1.00054
H         -3.28053       -1.73040        0.77090
