6
CARBONIC_ACID.gamout	Energy:    -264.8451073
O         -0.88101       -1.10906        0.43677
O         -1.14930        1.06297        0.48766
O          0.83323        0.22251       -0.27581
C         -0.28837        0.07351        0.17205
H         -0.23265       -1.80029        0.19784
H         -0.69006        1.90154        0.28464
