3
CARBON_DISULFIDE.gamout	Energy:    -834.3123976
S          1.57322        0.00000        0.00000
S         -1.57322        0.00000       -0.00000
C         -0.00000        0.00000        0.00000
