3
CARBON_DIOXIDE.gamout	Energy:    -188.4668881
C         -0.00000        0.00000        0.00000
O          1.17531        0.00000       -0.00000
O         -1.17530        0.00000        0.00000
