18
CHLOROCYCLOHEXANE.gamout	Energy:    -695.2225684
Cl         0.15469       -0.25396       -2.00462
C         -0.29469       -0.27214       -0.21771
C         -1.17602       -1.48217        0.08645
C         -0.96935        1.04302        0.16585
C         -1.56452       -1.49570        1.57816
C         -1.35624        1.02629        1.65785
C         -2.24295       -0.18222        1.99421
H          0.68021       -0.36922        0.30113
H         -0.65261       -2.41548       -0.19555
H         -2.09049       -1.41860       -0.54058
H         -1.88064        1.16975       -0.45593
H         -0.29951        1.89460       -0.05970
H         -0.65237       -1.65167        2.19523
H         -2.22653       -2.36178        1.77633
H         -1.86782        1.97475        1.91484
H         -0.43461        0.98926        2.27970
H         -3.21377       -0.08432        1.46066
H         -2.47871       -0.19661        3.07648
