10
CHLOROPENTAFLUOROACETONE.gamout	Energy:   -1148.3646575
C          1.00409        0.02154       -0.04861
C          0.35019       -0.91645        1.03714
O         -0.37799       -0.46454        1.88005
C          0.69512       -2.44875        0.93269
F          0.35090        1.19007       -0.09627
F          0.97498       -0.54452       -1.27620
F          2.29386        0.26080        0.29347
F         -0.07351       -2.97912       -0.05464
F          1.99418       -2.60659        0.58200
Cl         0.37485       -3.30310        2.46316
