7
CHLOROACETYL_CHLORIDE.gamout	Energy:   -1072.7543031
Cl         0.80735        1.45330        1.37527
C          1.80137        1.63454       -0.15513
O          1.42712        1.20342       -1.19836
C          3.07152        2.38203        0.18984
Cl         4.14392        2.63237       -1.22259
H          2.80126        3.36675        0.61652
H          3.62113        1.81262        0.96353
