5
CHLORODIBROMOMETHANE.gamout	Energy:   -5647.0145537
Br         1.61744       -0.89243        0.16575
Br        -1.61736       -0.89266        0.16555
Cl        -0.00008        1.74696        0.15402
C          0.00002        0.05129       -0.39887
H          0.00008        0.05389       -1.50028
