5
CHLOROFORM.gamout	Energy:   -1418.9853678
C         -0.00003        0.00009        0.45714
H         -0.00001        0.00040        1.55928
Cl         0.00004        1.70711       -0.08414
Cl         1.47806       -0.85354       -0.08416
Cl        -1.47809       -0.85361       -0.08416
