8
CHLOROPENTAFLUOROETHANE.gamout	Energy:   -1035.1302777
C         20.97886       18.99623       -0.00019
C         22.54605       18.98814        0.00025
Cl        23.18380       17.31927       -0.00007
F         22.97841       19.64397        1.09643
F         22.97841       19.64435       -1.09555
F         20.54827       20.27422       -0.00005
F         20.50693       18.37970       -1.09715
F         20.50666       18.37933        1.09630
