10
CHLOROPRENE.gamout	Energy:    -615.3892967
C         -0.10082       -0.01120       -0.00662
C          1.06313        0.67540       -0.04448
C          2.38756        0.05957        0.00656
Cl         1.00712        2.44047       -0.16411
C          3.57666        0.69768       -0.02838
H         -1.07605        0.48806       -0.04723
H         -0.07827       -1.10793        0.06747
H          2.36136       -1.04075        0.08098
H          4.51674        0.13185        0.01653
H          3.63735        1.79241       -0.10242
