16
CIS,TRANS-2,4-HEXADIENE.gamout	Energy:    -234.4610915
C          6.07342        0.67274        0.95059
C          5.54978        2.06153        1.17773
C          4.25435        2.44125        1.34330
C          3.08075        1.58082        1.33629
C          1.81027        2.02984        1.50524
C          0.58197        1.16983        1.50148
H          5.27773       -0.09397        0.93203
H          6.62687        0.61056       -0.01110
H          6.79862        0.38953        1.74370
H          6.31181        2.85782        1.21212
H          4.05694        3.51551        1.50039
H          3.23255        0.49842        1.18392
H          1.65688        3.11350        1.65819
H         -0.12875        1.48106        0.70491
H          0.83476        0.10379        1.34057
H          0.02415        1.25206        2.46003
