27
CIS,CIS-1,3,5-TRIMETHYLCYCLOHEXANE.gamout	Energy:    -353.5719496
C          2.10367        3.62421        2.72630
C          0.81128        4.38110        2.38960
C          3.30647        4.57328        2.87062
C          2.42170        2.52841        1.69299
C          4.61458        3.83986        3.21085
C          3.71329        1.75751        2.01624
C          5.79751        4.80851        3.34730
C          4.89020        2.73713        2.17459
C          4.01140        0.66543        0.98002
H          1.95887        3.11949        3.70948
H          0.57609        5.13920        3.16223
H         -0.05065        3.68879        2.31777
H          0.89936        4.90759        1.41631
H          3.44101        5.13283        1.91614
H          3.09196        5.33811        3.64621
H          1.56966        1.81968        1.61809
H          2.51759        2.99465        0.68501
H          4.46723        3.34027        4.19621
H          3.56291        1.26168        3.00312
H          5.99061        5.33667        2.39044
H          6.72422        4.27220        3.62981
H          5.59835        5.57610        4.12037
H          5.10288        3.21167        1.18884
H          5.81047        2.18186        2.45191
H          4.92550        0.10133        1.24960
H          4.17352        1.10317       -0.02707
H          3.17496       -0.05651        0.90290
