24
CIS-3-OCTENE.gamout	Energy:    -314.2483452
C          4.52108        2.32150        2.09635
C          4.44943        3.63119        1.35624
C          3.05124        3.94987        0.77980
C          5.36531        1.29199        1.86735
C          1.96678        4.19975        1.83930
C          6.46131        1.20034        0.83837
C          0.62466        4.64085        1.24089
C          7.82446        0.84473        1.45953
H          3.79538        2.19705        2.91735
H          4.73585        4.45642        2.04869
H          5.19369        3.65212        0.53698
H          3.13727        4.85187        0.13615
H          2.73383        3.12247        0.10919
H          5.25850        0.40279        2.51449
H          2.33333        4.97189        2.55047
H          1.81169        3.28152        2.44369
H          6.54576        2.14650        0.26840
H          6.19563        0.41789        0.09121
H          0.22663        3.87498        0.54458
H         -0.13617        4.80652        2.02835
H          0.73161        5.58675        0.67210
H          8.60809        0.75634        0.68226
H          8.14300        1.61884        2.18548
H          7.77309       -0.12069        2.00197
