4
CIS-DIFLUORODIAZINE.gamout	Energy:    -308.8181598
N         17.93435       29.08582        0.00000
N         16.97477       28.30810        0.00000
F         15.83965       29.12027       -0.00000
F         19.06944       28.27361       -0.00000
