18
CIS-3-HEXENE.gamout	Energy:    -235.6789698
C          3.16013        3.94868        1.94697
C          2.04633        3.27596        1.58325
C          1.94007        1.89886        0.98012
C          4.59562        3.50095        1.85143
C          1.09733        0.93712        1.84063
C          5.30192        3.47146        3.22174
H          3.01841        4.95452        2.38180
H          1.07897        3.78326        1.75011
H          2.94551        1.46492        0.81083
H          1.46738        1.98495       -0.02449
H          5.14595        4.20202        1.18406
H          4.66534        2.50305        1.37463
H          0.99493       -0.05170        1.35166
H          1.56586        0.78681        2.83312
H          0.07648        1.33725        2.00835
H          6.36747        3.18808        3.11483
H          4.81551        2.74266        3.89968
H          5.26541        4.46448        3.71514
