6
CIS-1,2-DIIODOETHYLENE.gamout	Energy:    -672.9978444
C          0.99176       -0.06662       -0.02863
C          0.32188       -0.50957        1.04540
I          1.14729       -1.24795        2.83207
I          3.07869        0.03037       -0.25987
H          0.45196        0.29928       -0.91351
H         -0.77734       -0.51357        1.05641
