21
CIS-3-HEPTENE.gamout	Energy:    -274.9644986
C          1.45934        2.39859        1.93707
C          2.62658        1.55650        2.49486
C          0.84154        3.32567        2.98932
C          3.27314        0.67290        1.45997
C          4.57944        0.61687        1.11690
C          5.72373        1.41870        1.68138
C          6.52276        2.16915        0.59923
H          1.82964        2.99767        1.07868
H          0.68201        1.71989        1.52515
H          2.23744        0.92287        3.32484
H          3.37848        2.23117        2.95178
H          1.59966        4.03104        3.38598
H          0.01118        3.92517        2.56790
H          0.43720        2.75225        3.84888
H          2.58609       -0.00851        0.92706
H          4.85923       -0.10394        0.32809
H          5.35741        2.13171        2.44590
H          6.41206        0.72514        2.21635
H          6.93893        1.46771       -0.15216
H          5.87797        2.89243        0.06227
H          7.36920        2.72657        1.04526
