27
CIS-1-METHYL-3-ETHYLCYCLOHEXANE.gamout	Energy:    -353.5689277
C          3.03315        2.72591        1.43760
C          4.29645        3.44460        0.94010
C          5.47372        2.47229        0.78885
C          3.27545        1.95614        2.74887
C          4.47254        1.00365        2.57944
C          2.02489        1.20052        3.24001
C          5.75057        1.71123        2.09614
C          6.91914        0.73205        1.95192
C          0.87372        2.10036        3.70732
H          2.21164        3.45702        1.56710
H          2.68952        2.00342        0.66247
H          4.08875        3.96484       -0.01691
H          4.57514        4.23515        1.67142
H          5.25103        1.73569       -0.01665
H          6.38671        3.01578        0.46803
H          3.54970        2.70268        3.53160
H          4.19872        0.20863        1.84820
H          4.67267        0.48446        3.53922
H          1.67020        0.52417        2.43148
H          2.32723        0.53874        4.07919
H          6.02021        2.46916        2.86875
H          6.67742       -0.05886        1.21210
H          7.83690        1.24737        1.60741
H          7.15080        0.23290        2.91296
H          1.20308        2.76553        4.53112
H          0.48753        2.74162        2.89106
H          0.02198        1.50020        4.08246
