24
CIS-1,3-DIMETHYLCYCLOHEXANE.gamout	Energy:    -314.2847198
C          1.04011        2.02717        5.67843
C          1.91700        1.53284        4.52086
C          1.69055        2.35980        3.24260
C          3.40989        1.53166        4.89163
C          2.56092        1.89968        2.05967
C          2.31342        2.75304        0.80976
C          4.04553        1.89221        2.46132
H         -0.03465        1.99316        5.41150
H          1.18549        1.40891        6.58597
H          1.28996        3.07629        5.94077
H          1.62732        0.47982        4.29499
H          1.91578        3.42972        3.46098
H          0.61853        2.31995        2.95727
H          3.57481        0.89213        5.78338
H          2.27280        0.84872        1.82265
H          2.91920        2.39625       -0.04610
H          1.24755        2.72429        0.50943
H          2.58313        3.81355        0.99567
H          4.66002        1.50847        1.62088
C          4.29585        1.06206        3.72852
H          3.70641        2.56414        5.18635
H          4.37370        2.94213        2.63604
H          4.07941       -0.00762        3.51403
H          5.36615        1.11324        4.01568
