9
CYANURIC_CHLORIDE.gamout	Energy:   -1658.7097940
C         -0.75490       -1.01619       -0.25257
N          0.55735       -1.24908       -0.16117
N         -1.36233        0.16490       -0.10798
Cl        -1.77213       -2.38398       -0.59322
C          1.27751       -0.15499        0.10156
C         -0.52220        1.17059        0.15147
N          0.80570        1.08357        0.26958
Cl         2.99785       -0.36410        0.23895
Cl        -1.22554        2.74729        0.35504
