30
CYCLODECANE.gamout	Energy:    -392.8296952
C          3.38662        1.65046        3.38270
C          2.32904        0.89048        2.56534
C          1.70198        1.70962        1.41665
C          1.00863        3.02840        1.85093
C          1.41078        4.27406        1.03435
C          2.91625        4.58710        1.05150
C          3.51274        4.99155        2.41732
C          5.01562        4.64495        2.55116
C          5.37466        3.28921        3.20081
C          4.68484        2.02464        2.63315
H          3.65213        1.05579        4.28031
H          2.92071        2.57224        3.78312
H          1.52390        0.56095        3.25744
H          2.76540       -0.04384        2.14926
H          0.97263        1.06587        0.88954
H          2.48316        1.92504        0.65870
H         -0.08993        2.90816        1.78260
H          1.20503        3.22204        2.92549
H          0.83320        5.15163        1.39946
H          1.09852        4.12994       -0.02250
H          3.46277        3.70385        0.66450
H          3.12865        5.39123        0.31729
H          2.94585        4.51961        3.24427
H          3.36819        6.08340        2.55746
H          5.52265        5.43190        3.14331
H          5.47253        4.69351        1.53898
H          5.15288        3.34475        4.28906
H          6.47496        3.17580        3.12928
H          5.38434        1.16465        2.68842
H          4.48428        2.16166        1.55139
