19
CYCLOPENTYL_METHYL_ETHER.gamout	Energy:    -310.8590387
C         -1.87953        8.69814        1.28837
C         -0.99050        9.37596        2.36928
C         -1.28295        8.60549        3.68080
H          0.08202        9.37378        2.09913
H         -1.29009       10.43220        2.52794
C         -2.89866        7.80333        2.06368
H         -1.27383        8.08921        0.58943
H         -2.39598        9.45694        0.66949
C         -2.75917        8.21449        3.54227
H         -3.36993        9.11355        3.76747
H         -3.05558        7.42093        4.25279
H         -2.63840        6.73206        1.94128
H         -3.93292        7.91954        1.68943
O         -1.08863        9.34746        4.87842
H         -0.65416        7.67987        3.71731
C          0.26770        9.59327        5.20578
H          0.27891       10.09216        6.19301
H          0.76673       10.25986        4.46589
H          0.84988        8.64442        5.27795
