19
CYCLOHEXANONE_OXIME.gamout	Energy:    -364.9512269
C         -3.89314        1.03674        1.13071
C         -5.09429        1.94663        1.23646
C         -4.12259       -0.06328        0.07139
C         -4.56371        0.53940       -1.27147
C         -5.81970        1.40976       -1.10886
C         -5.61872        2.52275       -0.05637
N         -5.58591        2.13146        2.41665
O         -6.71137        2.99569        2.41553
H         -3.66893        0.60868        2.12546
H         -3.01290        1.64741        0.82599
H         -3.19730       -0.66124       -0.05547
H         -4.90601       -0.76038        0.43853
H         -4.75415       -0.26665       -2.00757
H         -3.73776        1.15830       -1.68663
H         -6.10429        1.86485       -2.07868
H         -6.67247        0.77123       -0.79461
H         -6.55340        3.08030        0.12367
H         -4.86757        3.25059       -0.43770
H         -6.95403        3.00866        3.35762
