23
CYCLOOCTANONE.gamout	Energy:    -388.2365646
O         -1.99965        0.42939       -1.15419
C         -1.37737       -0.02144       -0.19575
C         -0.81745       -1.44032       -0.24343
C         -1.19371        0.81598        1.06583
C          0.72527       -1.57393       -0.17884
C          0.26456        1.18357        1.44006
C          1.51119       -0.57395       -1.06192
C          1.13932        1.67832        0.26176
C          2.11103        0.63789       -0.32427
H         -1.19014       -1.87950       -1.18909
H         -1.26622       -2.01842        0.59350
H         -1.65598        0.26695        1.91519
H         -1.78256        1.73956        0.90605
H          0.96370       -2.60828       -0.49766
H          1.07975       -1.50675        0.86909
H          0.20056        1.98044        2.20726
H          0.76111        0.33135        1.94548
H          0.86970       -0.22609       -1.89938
H          2.35309       -1.11295       -1.53962
H          1.74796        2.53643        0.60929
H          0.48975        2.08250       -0.54333
H          2.76363        0.26303        0.49645
H          2.79434        1.16210       -1.02565
