16
CYCLOHEXENE.gamout	Energy:    -234.4817693
C          0.71935        2.16885        3.00964
C          1.96241        2.01418        3.90073
C          1.09765        2.71338        1.62174
C          2.97071        1.03369        3.27810
C          2.32511        2.03701        1.05933
C          3.15227        1.26775        1.79724
H         -0.02687        2.83138        3.49190
H          0.23351        1.17604        2.89270
H          1.67440        1.67444        4.91554
H          2.44549        3.00758        4.02403
H          1.27017        3.81385        1.67058
H          0.24879        2.59000        0.91576
H          2.64394       -0.01840        3.44930
H          3.95296        1.11462        3.79039
H          2.53809        2.18213       -0.01181
H          4.01399        0.78396        1.31016
