15
CYCLOPENTYL_CHLORIDE.gamout	Energy:    -655.9266218
Cl         1.76516       -1.90344        0.06602
C          3.37119       -1.23294        0.62268
C          3.26795        0.17627        1.21264
C          4.01194       -2.05712        1.74202
C          4.62029        0.34607        1.94831
C          5.09164       -1.10158        2.31311
H          4.00639       -1.23509       -0.28535
H          3.08002        0.95078        0.44759
H          2.42229        0.19937        1.93030
H          4.41784       -3.02126        1.38593
H          3.23836       -2.28032        2.50468
H          4.51739        0.98985        2.84197
H          5.36174        0.83809        1.28815
H          6.07998       -1.31259        1.85945
H          5.21019       -1.23809        3.40423
