17
CYCLOHEXANONE.gamout	Energy:    -309.6740734
O          4.41841        0.58691        1.21852
C          3.45573        1.32666        1.38476
C          2.06802        1.01455        0.85020
C          3.57071        2.65126        2.14141
C          0.95627        1.17999        1.91667
C          2.22915        3.38388        2.29252
C          1.15576        2.42455        2.82893
H          1.88308        1.73600        0.02228
H          2.07260        0.00417        0.40425
H          4.00899        2.41800        3.13578
H          4.33024        3.26878        1.61895
H         -0.01827        1.23725        1.39346
H          0.91569        0.26327        2.53640
H          2.34501        4.24748        2.97611
H          1.91146        3.80953        1.31687
H          0.19549        2.95908        2.95429
H          1.46044        2.09852        3.84534
