24
CYCLOHEXYL_ACETATE.gamout	Energy:    -463.4475711
O          0.58367       -0.36883       -0.87684
O          1.80260       -0.66639        1.03210
C         -0.58246        0.09412       -0.13442
C         -0.91938        1.50855       -0.60917
C         -1.73003       -0.88386       -0.39294
C         -2.22923        2.00724        0.02608
C         -3.03773       -0.38290        0.24283
C         -3.38680        1.03263       -0.24085
C          1.70261       -0.71251       -0.18322
C          2.79965       -1.15921       -1.12133
H         -0.31265        0.09710        0.94116
H         -1.02425        1.48952       -1.71514
H         -0.07809        2.18937       -0.37464
H         -1.45641       -1.88385       -0.00363
H         -1.86036       -0.98709       -1.49153
H         -2.46710        3.01646       -0.36410
H         -2.09276        2.12105        1.12392
H         -2.93333       -0.37572        1.35005
H         -3.85656       -1.09215        0.01202
H         -4.31198        1.38994        0.25339
H         -3.60192        1.00729       -1.33181
H          2.48039       -1.11269       -2.17584
H          3.09293       -2.19339       -0.86028
H          3.68580       -0.51596       -0.96489
