17
CYCLOPENTYLAMINE.gamout	Energy:    -251.7345154
N          0.65440        2.62951        1.78536
C          2.02949        2.13923        1.89467
C          3.02657        3.02478        1.12163
C          4.32295        2.18529        1.00449
C          3.89761        0.70226        1.26159
C          2.35728        0.72727        1.35085
H          0.33409        2.60870        0.80916
H          0.00308        2.05191        2.32687
H          2.29365        2.16722        2.97572
H          2.59913        3.22241        0.11460
H          3.17581        4.00743        1.60527
H          4.79609        2.30974        0.01142
H          5.07740        2.51148        1.74745
H          4.26055        0.01691        0.47251
H          4.33163        0.33633        2.21412
H          1.90436        0.63107        0.33993
H          1.94130       -0.08347        1.97925
