3
DEUTERIUM_OXIDE.gamout	Energy:     -76.3811740
O          0.85562        0.00411        0.00000
H          1.69584        0.49582        0.00000
H          1.12340       -0.93187        0.00000
