27
DI-ISO-BUTYL_SULFIDE.gamout	Energy:    -713.5903641
C          1.69826        0.03464       -0.06786
S          3.30858        0.92736        0.02686
C          4.45638       -0.51356        0.09134
C          0.51188        1.01285       -0.10629
C          5.92951       -0.07187        0.10658
C          0.50518        1.86576       -1.38221
C         -0.80675        0.23601        0.04268
C          6.29398        0.70646        1.37715
C          6.83608       -1.30333       -0.06367
H          1.69460       -0.60637       -0.97590
H          1.61199       -0.62639        0.81838
H          4.22678       -1.11712        0.99617
H          4.26464       -1.14715       -0.79860
H          0.61098        1.69020        0.77055
H          6.08672        0.59434       -0.77058
H         -0.34771        2.57200       -1.37693
H          1.43565        2.45323       -1.49189
H          0.40502        1.22287       -2.28161
H         -1.67396        0.92583        0.04668
H         -0.83306       -0.34606        0.98463
H         -0.94535       -0.47235       -0.80020
H          7.35527        1.02133        1.35211
H          5.67214        1.61251        1.50272
H          6.15144        0.07355        2.27792
H          7.90461       -1.01138       -0.08612
H          6.61181       -1.84367       -1.00381
H          6.69849       -2.01044        0.78033
