27
DI-N-BUTYL_SULFIDE.gamout	Energy:    -713.5898079
S         67.96596        9.83042       -0.00003
C         66.33378        8.97672        0.00007
C         69.14129        8.41279       -0.00012
C         70.57840        8.94683       -0.00003
C         71.63404        7.82992       -0.00002
C         73.07182        8.36409        0.00009
C         65.21509       10.02583        0.00001
C         63.80826        9.40524        0.00005
C         62.68993       10.45557       -0.00000
H         66.25673        8.32871       -0.89788
H         66.25668        8.32886        0.89815
H         68.96094        7.78538        0.89782
H         68.96106        7.78546       -0.89815
H         70.72747        9.59626       -0.88913
H         70.72735        9.59622        0.88912
H         71.47920        7.17912        0.88762
H         71.47928        7.17925       -0.88776
H         73.80877        7.53856        0.00005
H         73.26799        8.99042       -0.89405
H         73.26794        8.99028        0.89433
H         65.33001       10.68158        0.88917
H         65.33000       10.68147       -0.88924
H         63.69895        8.74570       -0.88772
H         63.69898        8.74584        0.88791
H         61.69132        9.97841        0.00005
H         62.75253       11.10804        0.89442
H         62.75248       11.10796       -0.89449
