27
DI-TERT-BUTYL_ETHER.gamout	Energy:    -390.6392099
O         34.96256       26.66884       -0.01454
C         33.60397       26.16677        0.05528
C         36.18505       25.88934       -0.07380
C         32.76977       27.42694       -0.23516
C         33.27027       25.09319       -0.99719
C         33.26034       25.66018        1.47067
C         36.44156       25.36181       -1.49963
C         37.25850       26.93551        0.27122
C         36.27077       24.73910        0.94628
H         31.68966       27.19911       -0.17072
H         33.00708       28.21953        0.49826
H         32.98942       27.81468       -1.24762
H         32.18611       24.86441       -0.95781
H         33.81098       24.14509       -0.82129
H         33.50787       25.45401       -2.01484
H         33.58015       26.40320        2.22471
H         32.16519       25.51909        1.56829
H         33.74133       24.69446        1.70076
H         37.48635       25.00337       -1.59369
H         35.77780       24.52104       -1.76538
H         36.29129       26.17476       -2.23422
H         38.26700       26.48252        0.23908
H         37.08420       27.34359        1.28412
H         37.22462       27.77230       -0.45034
H         36.07313       25.10192        1.97128
H         35.57064       23.91518        0.71598
H         37.29385       24.31199        0.92661
