30
DIBENZYLAMINE.gamout	Energy:    -596.8591057
C          6.26137        1.79809       -0.51436
C          6.86836        0.55800       -0.79701
C          7.07440        3.07952       -0.49353
C          4.88638        1.82048       -0.21042
N          6.39367        4.21086       -1.13265
C          7.18905        5.44196       -1.10586
C          6.51405        6.61785       -1.78807
C          7.24437        7.46500       -2.64479
C          5.15860        6.91375       -1.54508
C          4.55299        8.02928       -2.13923
C          5.29239        8.87108       -2.98497
C          6.64139        8.58546       -3.23898
C          6.12215       -0.63148       -0.77116
C          4.75449       -0.59603       -0.46490
C          4.13988        0.63533       -0.18796
H          7.94172        0.51732       -1.03648
H          7.26805        3.37784        0.56260
H          8.08092        2.87948       -0.93954
H          4.40527        2.78255        0.00836
H          6.13830        3.97300       -2.09846
H          7.36606        5.68563       -0.03285
H          8.20608        5.30755       -1.55418
H          8.30334        7.24651       -2.84687
H          4.58090        6.25901       -0.87996
H          3.49521        8.24977       -1.93549
H          4.81731        9.74704       -3.44591
H          7.22451        9.23576       -3.90796
H          6.60987       -1.59119       -0.99712
H          4.16790       -1.52409       -0.44302
H          3.06771        0.66902        0.05316
