5
DICHLOROMETHANE.gamout	Energy:    -959.4876910
Cl         0.54313       -0.04336        2.33948
C          0.70392        1.06033        0.93359
Cl         2.37388        1.66973        0.68715
H          0.40890        0.50298        0.02906
H          0.04966        1.93047        1.10976
