5
DICHLOROMONOBROMOMETHANE.gamout	Energy:   -3532.9999316
C          0.89892        1.00415        0.03277
Br        -0.83635        1.92611       -0.03485
Cl         2.25446        2.16425       -0.02640
Cl         1.01303       -0.07260        1.45227
H          0.94847        0.37831       -0.87245
