16
DIETHYL_KETONE.gamout	Energy:    -271.5958114
C          0.68926        0.03009       -2.25816
C          0.45466        0.94012       -1.05638
C          0.66506        2.42053       -1.35893
C          0.44254        3.39262       -0.20519
O          0.99597        2.80831       -2.47280
C          0.68894        4.85142       -0.57768
H          0.52695       -1.03012       -1.98907
H          0.00629        0.29200       -3.08775
H          1.72142        0.14344       -2.63905
H          1.12211        0.67418       -0.20701
H         -0.57396        0.82378       -0.64913
H          1.09560        3.07061        0.63585
H         -0.59301        3.23622        0.16983
H          0.51808        5.51389        0.29064
H          0.01764        5.16581       -1.39865
H          1.72627        4.99444       -0.93369
