9
DIMETHYL_ETHER.gamout	Energy:    -154.9185393
C          2.83543        1.00134        1.05153
O          1.80565        1.71552        1.70879
C          0.68102        1.93419        0.87859
H          3.66620        0.87683        1.77040
H          2.48828       -0.00649        0.72093
H          3.20951        1.55497        0.15774
H         -0.06652        2.49310        1.47135
H          0.94791        2.53283       -0.02495
H          0.22869        0.97183        0.54004
