12
ETHYL_SULFATE-1.gamout	Energy:    -778.0166693
C         -3.78619       -2.57975        2.68286
C         -2.62143       -2.74259        1.70588
H         -4.47119       -1.77920        2.33420
H         -4.36302       -3.52299        2.76416
H         -3.41686       -2.31237        3.69309
O         -1.78485       -3.79125        2.17523
H         -2.04090       -1.79372        1.63228
H         -3.00138       -2.98140        0.68491
S         -0.32814       -4.02628        1.19782
O          0.30137       -5.16702        1.93446
O         -0.85849       -4.34931       -0.17800
O          0.39968       -2.70814        1.29790
