5
FLUOROMETHANE.gamout	Energy:    -139.6435308
F         -0.03657        1.62759        0.35097
C          1.14996        1.04095        0.80002
H          0.94891       -0.01811        1.05879
H          1.50444        1.59191        1.69432
H          1.90574        1.09928       -0.00892
