9
FURAN.gamout	Energy:    -229.8698474
C          1.86594        2.63321        0.03058
C          1.07643        1.50800        0.05838
O          1.85614        0.38298        0.09384
C          3.16207        0.79426        0.08850
C          3.22884        2.16683        0.05021
H          1.51898        3.67113       -0.00020
H         -0.00375        1.34083        0.05788
H          3.91276        0.00032        0.11444
H          4.13996        2.77371        0.03749
