31
HMIM+1.gamout	Energy:    -501.4551737
C          2.16693        0.59517        1.41676
C          3.63230        0.27100        1.08792
N          3.98325       -1.13014        1.40660
H          4.33152        0.91248        1.65626
H          3.84087        0.41979        0.01191
C          4.00863       -2.15643        0.53460
C          4.41194       -2.98131        2.55520
C          4.23021       -1.62232        2.67637
C          4.40655       -4.63030        0.62199
H          4.25864       -0.97412        3.55467
N          4.26867       -3.29310        1.21374
H          3.84677       -2.08152       -0.54402
H          4.62927       -3.74263        3.30731
H          3.56515       -4.82156       -0.06693
H          4.38306       -5.37552        1.43354
H          5.36448       -4.71086        0.07623
C          1.15326       -0.21572        0.59862
H          2.03511        1.67912        1.22384
H          1.98925        0.45604        2.50424
C         -0.31461        0.13752        0.88628
H          1.29601       -1.30208        0.79384
H          1.35988       -0.06673       -0.48441
C         -1.30185       -0.70696        0.06612
C         -2.76852       -0.38296        0.36974
H         -3.00127        0.67831        0.14842
H         -3.00488       -0.56249        1.43831
H         -3.45252       -1.00843       -0.23516
H         -1.09986       -0.55231       -1.01641
H         -1.11098       -1.78574        0.26096
H         -0.48590        1.21508        0.67303
H         -0.52646        0.00540        1.97050
