16
N-METHYLPYRROLIDONE.gamout	Energy:    -325.7304866
O         -2.31554        0.55253       -0.35718
N         -0.28889       -0.57632       -0.27926
C          1.10776        1.02220        0.76114
C          1.12035       -0.31241       -0.02541
C         -0.23204        1.67743        0.37668
C         -1.10842        0.52112       -0.12038
C         -0.74678       -1.81716       -0.86129
H          1.13499        0.81438        1.84861
H          1.98729        1.64768        0.52252
H          1.68394       -0.22549       -0.98425
H          1.57837       -1.14281        0.55042
H         -0.13039        2.40917       -0.45252
H         -0.73506        2.20227        1.20828
H         -0.53322       -2.67713       -0.19244
H         -0.25320       -2.00747       -1.83889
H         -1.83781       -1.73497       -1.01722
