12
N-METHYLACETAMIDE.gamout	Energy:    -248.3645957
C          1.97832        0.11723        0.00000
N          0.64120        0.69142       -0.00002
C         -0.47626       -0.10449        0.00000
C         -1.81257        0.62781        0.00002
O         -0.39330       -1.33576       -0.00000
H          2.72365        0.93190        0.00009
H          2.13535       -0.52083        0.89300
H          2.13560       -0.52076       -0.89301
H          0.53309        1.70305        0.00001
H         -1.71517        1.73059       -0.00004
H         -2.39093        0.31813       -0.89138
H         -2.39100        0.31828        0.89144
