10
N-PROPIONALDEHYDE.gamout	Energy:    -193.0118600
C          0.58916        1.22860        0.74289
O          0.02482        1.99106       -0.02116
C          2.07758        0.94642        0.74719
C          2.66577        0.80104        2.15830
H         -0.00607        0.65874        1.52043
H          2.20892       -0.00918        0.18780
H          2.58187        1.73295        0.15240
H          3.73745        0.53174        2.10980
H          2.57947        1.74562        2.73052
H          2.14543        0.00787        2.73177
