7
NITROMETHANE.gamout	Energy:    -244.8701154
N          0.09571        0.01248        0.00082
O          0.64588       -1.03911        0.33313
O          0.67134        1.05301       -0.32137
C         -1.40872        0.01382       -0.00841
H         -1.74224       -0.23850        1.01317
H         -1.75583        1.01017       -0.32104
H         -1.73184       -0.77617       -0.70829
