4
NO3-1.gamout	Energy:    -280.2100250
N          0.14499        0.58208       -0.00000
O         -0.01508       -0.67829        0.00000
O          1.31660        1.07336       -0.00000
O         -0.86640        1.35094        0.00000
