13
PHENOL.gamout	Energy:    -307.2658974
O          0.35877        2.39260        0.07643
C          1.72606        2.27006        0.06093
C          2.48356        3.45605        0.07485
C          2.37484        1.02090        0.03381
C          3.88295        3.38422        0.06216
C          3.77738        0.96343        0.02118
C          4.53938        2.14189        0.03537
H         -0.04922        1.50878        0.05984
H          1.96071        4.42144        0.09534
H          1.78214        0.09279        0.02261
H          4.46888        4.31425        0.07336
H          4.27574       -0.01618       -0.00022
H          5.63662        2.09427        0.02664
