11
PYRIDINE.gamout	Energy:    -248.1150562
C          3.12366        3.38638        0.18888
C          3.84297        2.18252        0.16222
C          1.72320        3.33391        0.13074
C          3.12569        0.97704        0.07873
C          1.10473        2.07495        0.04825
N          1.78373        0.91475        0.02243
H          3.64626        4.35158        0.25376
H          4.94150        2.17571        0.20537
H          1.11849        4.25179        0.14868
H          3.65971        0.01223        0.05587
H          0.00552        1.99766        0.00068
