6
TETRACHLOROETHYLENE.gamout	Energy:   -1916.5443200
C          2.40511        2.23719        1.03716
C          1.30650        1.43687        0.94939
Cl        -0.05816        1.85038       -0.03368
Cl         1.18541       -0.05901        1.81356
Cl         3.76919        1.82298        2.02043
Cl         2.52537        3.73272        0.17264
