8
1,1,2,2-TETRACHLOROETHANE.gamout	Energy:   -1917.3382488
Cl        -0.58115        1.57235        0.92447
C         -0.57014        0.51157       -0.50918
C          0.57013       -0.51157       -0.50918
Cl         2.14419        0.33697       -0.71315
Cl         0.58116       -1.57235        0.92447
Cl        -2.14419       -0.33697       -0.71315
H         -0.45426        1.15964       -1.38429
H          0.45427       -1.15964       -1.38429
