27
1,1,4-TRIMETHYLCYCLOHEXANE.gamout	Energy:    -353.3185301
C          2.30908        0.72300        2.41363
C          2.02039        0.90793        3.91445
C          1.26825        2.21395        4.20311
C          2.76941        2.02828        1.67871
C          3.21540        3.06953        2.73005
C          1.61826        2.59671        0.82395
C          3.95372        1.71074        0.74986
C          2.12838        3.42850        3.76176
C          0.83471        2.32805        5.66702
H          3.07352       -0.05944        2.29332
H          1.40402        0.33578        1.91939
H          1.44348        0.04760        4.28677
H          2.96510        0.90872        4.48513
H          0.35103        2.20064        3.58927
H          4.09563        2.66881        3.25789
H          3.56175        3.98223        2.22070
H          0.72425        2.81460        1.42285
H          1.92103        3.52838        0.32190
H          1.32551        1.87717        0.04484
H          3.68149        0.94363        0.00886
H          4.27821        2.60699        0.19962
H          4.81487        1.33338        1.32130
H          2.61948        3.86734        4.64480
H          1.47138        4.21691        3.36451
H          1.70885        2.29244        6.33632
H          0.30971        3.27691        5.85376
H          0.15842        1.50798        5.95051
