11
1,1,1,3,3,3-HEXAFLUOROPROPANE.gamout	Energy:    -713.8268455
C         -4.39043        2.68255        0.04822
C         -3.75233        4.04423       -0.19223
C         -2.25047        4.13650        0.04619
H         -4.24472        4.76901        0.46825
H         -3.94631        4.32873       -1.23410
F         -5.71313        2.76444       -0.20478
F         -4.24942        2.26445        1.31680
F         -3.88500        1.73079       -0.75273
F         -1.84007        5.39628       -0.20761
F         -1.91496        3.85107        1.31445
F         -1.55215        3.31641       -0.75561
