8
1,1,2-TRIFLUOROETHANE.gamout	Energy:    -377.1208969
C         -0.36132       -1.74640       -0.05442
C          0.53599       -0.52347       -0.00451
F          1.74237       -0.85460       -0.55701
F          0.00338        0.48917       -0.74293
H          0.70355       -0.14926        1.01659
F         -1.52161       -1.48785        0.65505
H          0.15546       -2.59961        0.40824
H         -0.62092       -1.97464       -1.09840
