8
1,1-DIFLUORO-1-CHLOROETHANE.gamout	Energy:    -737.4067390
C          0.95402        0.90021       -0.03555
Cl        -0.21134        2.24666        0.27819
F          2.18398        1.44643       -0.16598
F          0.98701        0.12272        1.07042
C          0.58653        0.09276       -1.25484
H          0.58226        0.73957       -2.13958
H          1.33728       -0.69997       -1.37797
H         -0.40459       -0.35419       -1.11683
