8
1,1-DIFLUORO-1,2-DICHLOROETHANE.gamout	Energy:   -1196.8084103
C         10.00129       18.04201       -0.03769
C         11.52326       18.03741       -0.06803
F          9.49201       19.14450       -0.60992
Cl         9.39697       16.60299       -0.94958
F          9.52624       17.97497        1.21598
Cl        12.20830       19.43680        0.82681
H         11.88735       17.11795        0.40191
H         11.86146       18.09539       -1.10780
