32
1,10-DIBROMODECANE.gamout	Energy:   -5540.0560483
C         51.95987       10.08342       -0.00007
C         53.27588        9.29809        0.00015
C         52.17742       11.60351        0.00015
C         53.08528        7.77915       -0.00008
C         54.40317        6.99826        0.00012
C         54.21255        5.47932       -0.00010
C         55.52854        4.69397        0.00010
C         55.31097        3.17388       -0.00012
C         56.62414        2.41115        0.00010
C         50.86425       12.36626       -0.00010
Br        51.14669       14.32865        0.00018
Br        56.34172        0.44873       -0.00010
H         51.36414        9.79398       -0.88259
H         51.36371        9.79378        0.88210
H         53.87112        9.59080        0.88191
H         53.87154        9.59101       -0.88126
H         52.76770       11.89252        0.88352
H         52.76813       11.89269       -0.88288
H         52.48985        7.48558       -0.88180
H         52.48944        7.48535        0.88128
H         54.99859        7.29181        0.88185
H         54.99900        7.29203       -0.88125
H         53.61729        5.18661       -0.88185
H         53.61691        5.18640        0.88133
H         56.12428        4.98338        0.88263
H         56.12470        4.98359       -0.88208
H         54.72070        2.88490       -0.88351
H         54.72031        2.88473        0.88296
H         57.22432        2.61303        0.89459
H         57.22470        2.61318       -0.89411
H         50.26410       12.16437       -0.89462
H         50.26363       12.16417        0.89405
