24
1,2,3,4-TETRAMETHYLBENZENE.gamout	Energy:    -388.9835993
C          3.26023        5.31324        1.22335
C          3.22888        3.83245        0.91142
C          4.44342        3.10508        0.92043
C          2.01088        3.18166        0.61186
C          5.72945        3.83446        1.24265
C          4.44738        1.72096        0.63685
C          0.69080        3.91998        0.58538
C          2.03610        1.81033        0.33096
C          5.72010        0.90321        0.64155
C          3.23022        1.09387        0.34475
H          2.25960        5.75299        1.25979
H          3.74351        5.51000        2.19295
H          3.83704        5.87100        0.46730
H          5.72426        4.21925        2.27578
H          6.61144        3.19652        1.13695
H          5.87362        4.70656        0.58580
H         -0.12718        3.23485        0.32704
H          0.44942        4.37001        1.56128
H          0.68695        4.73450       -0.15596
H          1.10237        1.29394        0.09806
H          6.22612        0.93045        1.61949
H          5.50298       -0.14808        0.41177
H          6.44376        1.26298       -0.10676
H          3.21783        0.02444        0.12344
