12
1,2,3,5-TETRAFLUOROBENZENE.gamout	Energy:    -628.4710224
F          7.14315        2.88280       -0.94198
C          6.33182        1.85874       -0.67051
C          6.85143        0.60580       -0.33585
C          4.94433        2.01664       -0.71468
F          8.17946        0.45609       -0.29387
C          6.02212       -0.47484       -0.04919
F          4.44956        3.21686       -1.03523
C          4.08078        0.96149       -0.43494
C          4.64669       -0.26743       -0.10663
F          3.82858       -1.29886        0.16704
H          6.44176       -1.44563        0.21022
H          3.00136        1.10005       -0.47335
