21
1,2,3-TRIMETHYLBENZENE.gamout	Energy:    -349.7221502
C          3.41059        5.40586        0.97614
C          3.39955        3.89307        0.95191
C          2.14050        3.23828        1.00695
C          4.58019        3.12019        0.88329
C          0.86113        4.03863        1.08293
C          2.07979        1.84131        0.99291
C          5.97592        3.70891        0.83339
C          4.47990        1.71688        0.87060
C          3.24669        1.07670        0.92439
H          2.97673        5.78820        1.91456
H          4.41300        5.83111        0.88488
H          2.79903        5.82094        0.15970
H          0.73026        4.68306        0.19878
H         -0.01157        3.37702        1.14830
H          0.84740        4.70386        1.96101
H          1.10644        1.34851        1.03602
H          6.52725        3.47526        1.75822
H          6.54821        3.27148        0.00129
H          5.99413        4.79515        0.70765
H          5.39500        1.12272        0.81679
H          3.19099       -0.01350        0.91288
