12
1,2-DIFLUOROBENZENE.gamout	Energy:    -430.2084913
F          1.78292        1.35270        0.00000
F          1.78324       -1.35222        0.00000
C          0.61023        0.69880       -0.00000
C          0.61040       -0.69860       -0.00000
C         -0.58845        1.40384       -0.00000
C         -0.58811       -1.40394       -0.00000
C         -1.79661        0.69898       -0.00000
C         -1.79643       -0.69937       -0.00000
H         -0.55907        2.49405        0.00000
H         -0.55847       -2.49415        0.00000
H         -2.73933        1.24737       -0.00007
H         -2.73901       -1.24800       -0.00007
