21
1,2-EPOXY-3-PHENOXYPROPANE.gamout	Energy:    -498.7397035
O          2.79878       -4.12521        0.56244
O          0.48222       -1.37712       -0.02346
C          2.24782       -2.93885       -0.00019
C          3.22206       -2.86769        1.09559
C          0.77059       -2.73936        0.23735
C         -0.80680       -0.93412        0.01974
C         -1.00398        0.41385       -0.32226
C         -1.90304       -1.73148        0.37907
C         -2.28705        0.95471       -0.30805
C         -3.18738       -1.17159        0.38801
C         -3.38984        0.16545        0.04585
H          2.58692       -2.70574       -1.01618
H          4.26139       -2.60082        0.87973
H          2.87647       -2.64944        2.11151
H          0.19196       -3.39288       -0.43870
H          0.52055       -3.00734        1.27773
H         -0.13635        1.01467       -0.59749
H         -1.77281       -2.77731        0.65353
H         -2.42845        2.00306       -0.57773
H         -4.03606       -1.79843        0.66860
H         -4.39348        0.59256        0.05558
