8
1,2-DICHLOROTETRAFLUOROETHANE.gamout	Energy:   -1395.0724905
Cl        -2.15898        0.33718        0.00000
C         -0.59142       -0.51346        0.00000
C          0.59142        0.51345       -0.00000
Cl         2.15898       -0.33718        0.00000
F          0.50479        1.28614       -1.08706
F          0.50479        1.28614        1.08706
F         -0.50480       -1.28615        1.08706
F         -0.50480       -1.28615       -1.08706
