19
1,2-DIMETHYLCYCLOPENTENE.gamout	Energy:    -273.5886544
C          4.23727        1.96210        3.88694
C          2.76478        1.81895        4.33427
C          2.04385        1.36103        3.07992
C          4.17063        2.10174        2.34909
C          2.81782        1.51684        1.98701
C          2.47654        1.23875        0.55490
C          0.63158        0.86680        3.15921
H          4.75430        2.80110        4.37290
H          4.78904        1.04648        4.14721
H          2.34390        2.78045        4.68415
H          2.64202        1.11150        5.17080
H          5.00137        1.58648        1.83944
H          4.22534        3.15914        2.02788
H          3.18332        0.51441        0.11561
H          1.46210        0.84045        0.42785
H          2.55625        2.15672       -0.05307
H         -0.02899        1.63575        3.59580
H          0.22287        0.58972        2.17939
H          0.55983       -0.01417        3.81933
