30
1,3,5-TRIETHYLBENZENE.gamout	Energy:    -467.5021650
C          0.98458        5.99306        0.58277
C          1.29929        5.95434        2.08739
C          2.62074        5.28443        2.39887
C          3.80938        6.02581        2.45151
C          5.04509        5.41396        2.70650
C          6.32330        6.22547        2.72627
C          6.99648        6.32646        1.34770
C          5.07361        4.02817        2.91675
C          3.90474        3.25495        2.87308
C          3.95920        1.75478        3.07201
C          4.20295        0.97802        1.76854
C          2.68749        3.90054        2.61520
H          0.93895        4.97622        0.16595
H          0.01842        6.48491        0.39539
H          1.76213        6.54349        0.03317
H          1.30630        6.98267        2.48178
H          0.48948        5.42482        2.61336
H          3.77084        7.10806        2.30172
H          6.10702        7.23945        3.09771
H          7.02914        5.77513        3.44171
H          6.32613        6.80325        0.61766
H          7.92066        6.92076        1.40459
H          7.25312        5.32905        0.96161
H          6.02784        3.54079        3.13366
H          4.75552        1.51206        3.79323
H          3.01459        1.41407        3.52430
H          4.23545       -0.10542        1.95785
H          3.40372        1.17460        1.03885
H          5.15580        1.27274        1.30449
H          1.76652        3.31180        2.59484
