10
1,3-BUTADIENE.gamout	Energy:    -155.7811497
C          1.01773        0.28200        0.98047
C          1.73204        0.74983        2.01762
C          3.13374        1.14957        1.94231
C          3.84763        1.61871        2.97914
H         -0.02922       -0.00322        1.09033
H          1.46160        0.17072       -0.01213
H          1.25118        0.84724        2.99723
H          3.61490        1.05116        0.96295
H          4.89455        1.90406        2.86929
H          3.40338        1.73110        3.97144
