15
1,3-DIAMINOPROPANE.gamout	Energy:    -229.5367165
C         -3.80736        1.34930       -0.15578
C         -2.69714        0.30047       -0.10467
C         -1.29518        0.90768       -0.08480
H         -2.77626       -0.37339       -0.97367
H         -2.84855       -0.32506        0.79069
N         -5.12616        0.71899       -0.11048
H         -3.65753        1.99337       -1.04661
H         -3.72121        2.01012        0.72182
H         -5.28643        0.13094       -0.92517
H         -5.87354        1.40667       -0.08309
N         -0.27156       -0.13655       -0.07421
H         -1.21646        1.60857        0.77158
H         -1.14825        1.51245       -0.99436
H         -0.33044       -0.70699        0.76626
H          0.66655        0.25201       -0.11000
