14
1,4-CYCLOHEXADIENE.gamout	Energy:    -233.1051263
C          1.72407        3.46843        0.89958
C          1.08561        2.10479        0.87747
C          1.78227        0.96238        0.86962
C          3.28737        0.90607        0.88137
C          3.92587        2.26987        0.88514
C          3.22921        3.41228        0.89335
H          1.37320        4.03367        1.78473
H          1.36635        4.06577        0.03887
H         -0.00751        2.06748        0.86769
H          1.24868        0.00780        0.85348
H          3.64865        0.32344        0.01209
H          3.63462        0.32585        1.75820
H          5.01901        2.30729        0.88080
H          3.76282        4.36697        0.89565
