13
1,4-PENTADIENE.gamout	Energy:    -195.0314527
C          0.83816        1.58537        1.44774
C          1.11585        1.20843        2.88249
C          2.54144        0.77041        3.11406
C          0.34187        2.75604        1.03935
C          3.38151        1.31455        3.99820
H          1.06329        0.81547        0.70023
H          0.44732        0.36836        3.15429
H          0.86314        2.04578        3.55037
H          2.88742       -0.06956        2.50022
H          0.15712        2.95831       -0.01711
H          0.10506        3.55548        1.74647
H          4.39960        0.94100        4.12123
H          3.08154        2.15537        4.62915
