14
1,4-DIOXANE.gamout	Energy:    -307.2802319
C          1.60324        3.19960        1.21394
C          1.00351        1.88655        1.70409
O          1.75026        0.78200        1.21570
C          3.11940        0.87385        1.57910
C          3.71924        2.18730        1.08997
O          2.97214        3.29172        1.57821
H          1.09056        4.05826        1.66846
H          1.50180        3.26666        0.11371
H         -0.02556        1.76605        1.33909
H          0.99254        1.87255        2.81083
H          3.63156        0.01573        1.12304
H          3.22167        0.80528        2.67917
H          3.73129        2.20191       -0.01676
H          4.74788        2.30773        1.45610
