19
1,5_DIMETHYL_2_PYRROLIDINONE.gamout	Energy:    -364.7952793
C          0.10522        2.05275       -0.16946
N          0.03877        0.61400       -0.05151
C          1.16828       -0.15607        0.05711
C          0.75271       -1.61708       -0.09095
C         -0.77857       -1.59259        0.00598
C         -1.17448       -0.14422       -0.36381
C         -2.41428        0.36045        0.36927
O          2.30226        0.26501        0.21530
H          1.15184        2.35273       -0.04412
H         -0.24899        2.38357       -1.16058
H         -0.50301        2.55153        0.59944
H          1.10584       -1.96231       -1.07589
H          1.24914       -2.23568        0.66640
H         -1.27153       -2.32378       -0.64742
H         -1.09856       -1.80357        1.03736
H         -1.36670       -0.07548       -1.45365
H         -2.25167        0.35338        1.45720
H         -2.68680        1.37982        0.06253
H         -3.26873       -0.29370        0.14317
