22
1,6-DIMETHYLCYCLOHEXENE.gamout	Energy:    -312.8479592
C         -7.70518       -0.31042        0.62961
C         -6.27183       -0.28964        0.06983
C         -8.65547        0.57976       -0.17132
C         -5.82571        1.12258       -0.30393
C         -5.30890       -0.98574        1.04682
C         -6.69689        2.14420       -0.37374
C         -4.36856        1.31884       -0.63981
C         -8.18012        2.03559       -0.13056
H         -8.07084       -1.34898        0.65398
H         -7.68067        0.03726        1.67734
H         -6.26429       -0.88364       -0.86604
H         -9.68251        0.49643        0.21497
H         -8.68101        0.23603       -1.21930
H         -5.68711       -1.98635        1.30316
H         -5.21541       -0.41041        1.98097
H         -4.30361       -1.11263        0.62394
H         -6.31472        3.13367       -0.64425
H         -4.18016        2.33512       -1.00975
H         -3.71685        1.15119        0.23237
H         -4.04363        0.60709       -1.41792
H         -8.43279        2.48906        0.84640
H         -8.71880        2.63918       -0.87967
