29
1,9-DIBROMONONANE.gamout	Energy:   -5500.7972771
C        103.98250       10.04122        0.00073
C        102.68386        9.22891        0.00027
C        102.91523        7.71563        0.00076
C        103.75683       11.55613        0.00010
C        101.62220        6.89315        0.00010
C        105.06756       12.35757        0.00042
C        101.88618        5.38038        0.00047
C        104.80802       13.85405       -0.00031
C        100.59887        4.57566       -0.00035
Br       106.48541       14.90591       -0.00010
Br       100.94412        2.62428       -0.00000
H        104.58452        9.76294        0.88251
H        104.58540        9.76240       -0.88028
H        102.08122        9.50670       -0.88167
H        102.08019        9.50718        0.88136
H        103.51837        7.43992        0.88261
H        103.51942        7.43955       -0.88026
H        103.15590       11.83398       -0.88267
H        103.15498       11.83463        0.88204
H        101.01847        7.16490       -0.88265
H        101.01730        7.16519        0.88197
H        105.66626       12.08640        0.88367
H        105.66708       12.08569       -0.88206
H        102.48617        5.11201        0.88390
H        102.48738        5.11184       -0.88209
H        104.26448       14.17847       -0.89508
H        104.26371       14.17925        0.89370
H         99.99199        4.75844       -0.89455
H         99.99073        4.75856        0.89299
