20
1-BROMOHEXANE.gamout	Energy:   -2809.8843503
C         -0.09227        9.98234        0.00014
C          1.25075        9.24988       -0.00009
C          2.46094       10.18910        0.00006
C          3.80462        9.45336       -0.00014
C          5.00917       10.40555        0.00008
C          6.32787        9.65166       -0.00011
Br         7.88281       10.88025        0.00031
H         -0.93299        9.27358        0.00005
H         -0.19530       10.62451        0.88847
H         -0.19540       10.62486       -0.88792
H          1.30890        8.58915       -0.88158
H          1.30898        8.58878        0.88112
H          2.40803       10.85077        0.88197
H          2.40798       10.85112       -0.88157
H          3.85762        8.79334       -0.88309
H          3.85768        8.79286        0.88245
H          4.96345       11.06148        0.88311
H          4.96344       11.06195       -0.88259
H          6.45136        9.03099       -0.89516
H          6.45129        9.03045        0.89458
