11
1-BROMOPROPANE.gamout	Energy:   -2692.1079075
C         -0.13026       -0.08805       -0.06904
C          1.40070       -0.18743       -0.06903
C          2.05250        1.18580       -0.06898
Br         4.02991        1.07259       -0.06860
H         -0.57974       -1.09110       -0.06915
H         -0.49847        0.44525       -0.95870
H         -0.49848        0.44504        0.82075
H          1.74178       -0.75002       -0.95071
H          1.74178       -0.75010        0.81261
H          1.79490        1.76631        0.82459
H          1.79526        1.76619       -0.96274
