17
1-CHLOROPENTANE.gamout	Energy:    -656.9013206
C          3.18970        1.92096        3.71754
C          2.82584        1.54241        2.27993
C          1.32642        1.29799        2.08359
C          4.67007        2.16471        3.96113
C          0.95380        0.92102        0.64853
Cl         5.66255        0.63746        3.82229
H          2.66874        2.85390        3.99894
H          2.83298        1.14550        4.41385
H          3.15820        2.34449        1.59757
H          3.38647        0.63978        1.98991
H          0.99863        0.49982        2.77079
H          0.76775        2.20192        2.38124
H          5.09730        2.86094        3.22828
H          4.85975        2.54626        4.97058
H          1.46951        0.00134        0.33201
H          1.23414        1.71848       -0.05678
H         -0.12761        0.74973        0.54880
