33
1-DECANETHIOL.gamout	Energy:    -791.8059383
S          6.58198       -0.71672        0.28403
C         -0.07704        0.37553        0.10225
C         -1.37263       -0.44074        0.09116
C          1.18912       -0.48351        0.16203
C         -2.64016        0.41497        0.01516
C          2.48672        0.33018        0.15308
C         -3.93498       -0.40220       -0.01305
C          3.74792       -0.54096        0.19976
C         -5.20223        0.45340       -0.10361
C          5.03585        0.27812        0.16967
C         -6.49357       -0.36631       -0.14134
H         -0.08947        1.07076        0.95967
H         -0.04178        1.00952       -0.80087
H         -1.41279       -1.07487        0.99383
H         -1.35356       -1.13573       -0.76646
H          1.16033       -1.11545        1.06637
H          1.19356       -1.17990       -0.69448
H         -2.59358        1.05026       -0.88660
H         -2.66472        1.10949        0.87300
H          2.51038        0.96116       -0.75242
H          2.48767        1.02682        1.00933
H         -3.98659       -1.03673        0.88908
H         -3.90520       -1.09767       -0.87027
H          3.74129       -1.23693       -0.65577
H          3.73818       -1.16781        1.10537
H         -5.23308        1.14757        0.75332
H         -5.14435        1.08754       -1.00454
H          5.08756        0.95673        1.03396
H          5.08593        0.90473       -0.73221
H         -6.60119       -0.98221        0.76494
H         -7.37877        0.28251       -0.21118
H         -6.50838       -1.04476       -1.00858
H          6.42691       -1.39586       -0.87641
