39
1-DODECANOL.gamout	Energy:    -547.4339350
C          6.32919       -0.46347       -0.00000
C          5.06306        0.38057       -0.00000
C          3.78219       -0.45824        0.00000
C          2.50283        0.38444        0.00000
C          1.21886       -0.44988        0.00000
C         -0.06253        0.38873        0.00000
C         -1.34503       -0.44816        0.00000
C         -2.62821        0.38765        0.00000
C         -3.90947       -0.45127        0.00000
C         -5.19433        0.38197        0.00000
C         -6.47424       -0.46031       -0.00000
C         -7.75740        0.37263       -0.00000
O          7.45553        0.40668       -0.00001
H          6.34347       -1.11891        0.89107
H          6.34347       -1.11891       -0.89107
H          5.08451        1.03971        0.88294
H          5.08450        1.03971       -0.88295
H          3.77572       -1.12223       -0.88197
H          3.77572       -1.12222        0.88197
H          2.50521        1.04887        0.88130
H          2.50521        1.04887       -0.88130
H          1.21712       -1.11475       -0.88134
H          1.21712       -1.11475        0.88135
H         -0.06201        1.05351        0.88132
H         -0.06201        1.05351       -0.88131
H         -1.34465       -1.11308       -0.88130
H         -1.34465       -1.11308        0.88130
H         -2.62853        1.05255        0.88126
H         -2.62853        1.05255       -0.88125
H         -3.90726       -1.11624       -0.88129
H         -3.90726       -1.11624        0.88128
H         -5.19670        1.04687        0.88152
H         -5.19670        1.04688       -0.88151
H         -6.46732       -1.12500       -0.88050
H         -6.46732       -1.12500        0.88049
H         -7.81034        1.02128        0.88818
H         -7.81034        1.02128       -0.88819
H         -8.65180       -0.26739       -0.00001
H          8.26904       -0.10744       -0.00001
