31
1-HEXYL-2-PYRROLIDONE.gamout	Energy:    -521.8285024
O          1.96968       -0.13325        1.98445
N          1.55452       -0.44687       -0.26294
C          2.04893        0.02562       -1.54893
C          0.73590       -1.63988       -0.13882
C          2.74257        1.36085       -1.20551
C         -0.71337       -1.46361       -0.60952
C          3.11257        1.21753        0.27890
C         -1.50626       -0.41982        0.18140
C          2.15342        0.15560        0.81336
C         -2.96957       -0.30940       -0.25746
C         -3.76528        0.74566        0.51765
C         -5.23004        0.84639        0.08663
H          1.22734        0.15505       -2.26811
H          2.75352       -0.70819       -1.98384
H          1.21328       -2.45564       -0.70965
H          0.75750       -1.91913        0.92309
H          2.03058        2.18762       -1.33811
H          3.60478        1.55758       -1.85480
H         -1.20753       -2.44563       -0.52444
H         -0.73290       -1.21219       -1.68357
H          3.02483        2.14183        0.86268
H          4.13628        0.83621        0.42274
H         -1.45965       -0.66875        1.25464
H         -1.01969        0.56395        0.08091
H         -3.45936       -1.29205       -0.14136
H         -3.01200       -0.07704       -1.33642
H         -3.71318        0.51557        1.59499
H         -3.27745        1.72731        0.39563
H         -5.31283        1.10913       -0.97950
H         -5.75432       -0.11018        0.23577
H         -5.76576        1.61460        0.66282
