19
1-HEPTYNE.gamout	Energy:    -273.5317089
C          5.88499        1.73645        0.90793
C          4.47592        1.13906        0.90760
C          3.37185        2.21399        0.90939
C          6.99275        0.67784        0.89288
C          2.01630        1.66213        0.90715
C          8.40337        1.27101        0.90303
C          0.89931        1.19173        0.90539
H          6.00371        2.39935        0.03299
H          6.01072        2.38086        1.79572
H          4.34385        0.49133        0.02636
H          4.34405        0.48982        1.78773
H          3.49363        2.86372        1.79272
H          3.49469        2.86758        0.02909
H          6.86595        0.01269        1.76348
H          6.86781        0.03800        0.00320
H          8.56874        1.88468        1.80203
H          9.16898        0.48227        0.89001
H          8.56927        1.91488        0.02559
H         -0.08986        0.77842        0.90433
