24
1-HEPTANETHIOL.gamout	Energy:    -674.0289512
C         -0.03401       -0.11163        0.00011
C          1.29178        0.65287       -0.00010
C          1.11930        2.17526        0.00009
C          2.44411        2.94398       -0.00011
C          2.26914        4.46577        0.00009
C          3.59958        5.22873       -0.00012
C          3.40646        6.74440        0.00010
S          5.05306        7.58252       -0.00029
H          0.12970       -1.19891       -0.00005
H         -0.63478        0.13744        0.88851
H         -0.63512        0.13757       -0.88803
H          1.88584        0.35711       -0.88117
H          1.88621        0.35694        0.88067
H          0.52596        2.47410        0.88177
H          0.52560        2.47427       -0.88129
H          3.03722        2.64563       -0.88164
H          3.03761        2.64544        0.88109
H          1.67749        4.76416        0.88245
H          1.67707        4.76438       -0.88191
H          4.18968        4.93495       -0.88354
H          4.19013        4.93473        0.88292
H          2.84751        7.05987        0.89189
H          2.84694        7.06007       -0.89125
H          4.59972        8.85727        0.00010
