21
1-HEXANETHIOL.gamout	Energy:    -634.7700853
C         35.01004       10.02387       -0.00012
C         36.30926        9.21196        0.00009
C         36.07619        7.69648       -0.00012
C         35.23538       11.53908        0.00012
C         37.38150        6.90228        0.00009
C         33.93754       12.34961       -0.00009
S         37.01246        5.09154       -0.00019
H         34.40728        9.74520       -0.88183
H         34.40685        9.74498        0.88123
H         36.91088        9.49020        0.88244
H         36.91132        9.49041       -0.88189
H         35.47916        7.41705       -0.88364
H         35.47873        7.41686        0.88305
H         35.83911       11.81409        0.88144
H         35.83959       11.81432       -0.88080
H         37.97596        7.14390        0.89210
H         37.97639        7.14410       -0.89157
H         34.13981       13.43042        0.00008
H         33.32768       12.12302       -0.88839
H         33.32728       12.12282        0.88788
H         38.29342        4.65653        0.00012
