16
1-HEXYNE.gamout	Energy:    -234.2727946
C          4.66743        1.92965        1.05587
C          3.41000        1.04534        0.95082
C          2.11147        1.84788        1.06729
C          5.92310        1.18462        0.95810
C          0.85410        0.98195        0.96625
C          6.96033        0.56171        0.88721
H          4.64332        2.70048        0.26655
H          4.65174        2.47553        2.01473
H          3.43161        0.50270       -0.00784
H          3.44577        0.27669        1.73964
H          2.10701        2.39099        2.02764
H          2.09067        2.62256        0.28175
H         -0.05742        1.59016        1.05365
H          0.81408        0.45195        0.00232
H          0.82949        0.22344        1.76386
H          7.87802        0.01092        0.82478
