17
1-IODOPENTANE.gamout	Energy:    -494.5892329
C         59.03484       33.98873       -0.00013
C         58.27420       32.65668        0.00005
C         60.55559       33.82292        0.00019
C         56.74812       32.84467       -0.00020
C         56.01655       31.51315        0.00005
I         53.83125       31.75061       -0.00009
H         58.72707       34.57667       -0.88064
H         58.72674       34.57710        0.87997
H         58.57492       32.06625        0.88232
H         58.57517       32.06586       -0.88186
H         61.06203       34.79868        0.00001
H         60.89561       33.26922        0.88868
H         60.89594       33.26873       -0.88787
H         56.45220       33.43273       -0.88255
H         56.45200       33.43314        0.88181
H         56.22771       30.91849        0.89527
H         56.22782       30.91805       -0.89485
