27
1-METHYL-1-ETHYLCYCLOHEXANE.gamout	Energy:    -353.3237931
C          1.66956        3.09612        1.12320
C          0.85185        1.96403        1.76077
C          1.71145        0.71313        1.98530
C          2.96077        3.47122        1.89779
C          3.77782        2.17906        2.15735
C          2.59755        4.16510        3.22638
C          3.77093        4.44490        1.00255
C          2.96666        1.04454        2.80187
C          5.09931        4.96655        1.56052
H          1.04262        3.99442        1.00367
H          1.95739        2.78394        0.10470
H         -0.00836        1.72558        1.11674
H          0.42990        2.29598        2.72329
H          2.01561        0.30319        1.00625
H          1.12372       -0.07259        2.48499
H          4.65209        2.40896        2.78328
H          4.17367        1.81957        1.19166
H          2.07026        5.11206        3.03553
H          3.49336        4.39416        3.82003
H          1.94403        3.54657        3.85390
H          3.96709        3.93896        0.04279
H          3.12439        5.30557        0.76266
H          2.67253        1.32755        3.82570
H          3.60325        0.15198        2.90250
H          5.80317        4.15079        1.77849
H          4.95935        5.54635        2.48372
H          5.58380        5.62894        0.82899
