22
1-METHYL-2-ISOPROPENYLBENZENE.gamout	Energy:    -387.7565223
C          3.10757        2.78833        2.11819
C          3.29173        4.13467        2.47698
C          4.55795        4.72316        2.46934
C          4.23198        2.01089        1.75014
C          1.71820        2.22501        2.13671
C          5.49714        2.61824        1.75403
C          4.10553        0.54957        1.38446
C          5.66769        3.96012        2.10201
C          1.06517        2.05479        3.29606
C          1.07717        1.92951        0.80094
H          2.41832        4.72381        2.76223
H          4.67433        5.77112        2.75179
H          6.37012        2.01843        1.48620
H          3.31646        0.05352        1.96602
H          3.86124        0.41867        0.31772
H          5.04971        0.01924        1.56767
H          6.66536        4.40294        2.09368
H          0.04110        1.67576        3.32467
H          1.53761        2.28459        4.25280
H          0.05937        1.53582        0.92510
H          1.02607        2.84603        0.19132
H          1.66106        1.19956        0.22132
