16
1-METHYLCYCLOPENTENE.gamout	Energy:    -234.3247428
C          0.96546        1.59029        0.91447
C          1.95066        1.90717        1.99662
C          2.16493        3.32760        2.48778
C          2.77695        1.05702        2.62610
C          3.02752        3.15342        3.76110
C          3.67237        1.74888        3.62746
H          1.19386        2.15534       -0.00526
H          0.96180        0.52017        0.66706
H         -0.05651        1.87928        1.21249
H          2.68506        3.92030        1.71191
H          1.21537        3.85158        2.68472
H          2.83462       -0.01297        2.41373
H          3.76876        3.95438        3.88862
H          2.37612        3.17101        4.64772
H          3.73038        1.21907        4.59143
H          4.70904        1.80965        3.24785
