19
1-METHYLCYCLOHEXENE.gamout	Energy:    -273.5904006
C          0.40850        2.13622        1.10076
C          1.90816        2.10637        1.23533
C          2.60257        3.45383        1.24493
C          2.60212        0.96020        1.33297
C          4.05537        3.38404        1.73189
C          4.10550        0.87783        1.43811
C          4.79274        2.20504        1.08847
H          0.10500        2.69668        0.20022
H         -0.01598        1.12552        1.03586
H         -0.05495        2.65035        1.95999
H          2.56195        3.88104        0.22507
H          2.02599        4.15561        1.87135
H          2.05406        0.01254        1.33710
H          4.57164        4.33205        1.51777
H          4.06391        3.25908        2.82775
H          4.38676        0.56616        2.46134
H          4.47585        0.07351        0.78093
H          4.79750        2.33629       -0.00663
H          5.84579        2.18374        1.40828
