22
1-METHYLINDANE.gamout	Energy:    -387.7789522
C          0.84228        3.13761        1.42570
C          2.12825        2.35858        1.11338
C          3.38315        3.00378        1.67416
C          2.14226        0.91737        1.71857
C          4.10057        2.12655        2.49775
C          3.85413        4.30148        1.44815
C          3.42454        0.77640        2.58812
C          5.28747        2.54250        3.10925
C          5.04167        4.71786        2.05825
C          5.75534        3.84178        2.88737
H          0.69683        3.22634        2.51297
H         -0.03516        2.62609        1.00255
H          0.87529        4.15282        1.00509
H          2.21977        2.29656        0.01515
H          2.12127        0.16193        0.92146
H          1.23960        0.75229        2.32427
H          3.30200        4.98931        0.80387
H          4.08462       -0.02327        2.21608
H          3.18725        0.51851        3.63249
H          5.84778        1.86033        3.75286
H          5.41625        5.72915        1.88823
H          6.68096        4.17601        3.36003
