21
1-METHYLNAPHTHALENE.gamout	Energy:    -424.6466614
C          2.05685        1.20869        3.71224
C          0.61657        0.83536        3.46266
C          2.74316        2.11202        2.82995
C          2.74030        0.68669        4.79567
C          4.11625        2.44915        3.09414
C          2.11528        2.69527        1.69167
C          4.09346        1.01835        5.05625
C          4.76917        1.88127        4.22423
C          4.79018        3.34423        2.21666
C          2.79827        3.56010        0.86100
C          4.15047        3.88969        1.12412
H         -0.03928        1.72030        3.47709
H          0.48755        0.35411        2.48010
H          0.25664        0.13742        4.22859
H          2.22532       -0.00031        5.47045
H          1.07580        2.45532        1.47083
H          4.59461        0.58294        5.92279
H          5.81126        2.14144        4.41846
H          5.83257        3.59368        2.42617
H          2.29548        3.99444       -0.00512
H          4.68176        4.57442        0.46082
