24
1-METHYL-3-PROPYLBENZENE.gamout	Energy:    -388.9825605
C          1.78827        4.73360        1.93516
C          0.66401        5.70955        1.58271
C          2.61102        4.29093        0.71015
C          3.72497        3.32841        1.05886
C          3.50157        1.94365        1.08074
C          4.52918        1.06646        1.43764
C          5.79105        1.55878        1.77748
C          6.04428        2.93968        1.76542
C          7.40087        3.48042        2.15263
C          5.00097        3.80279        1.40108
H          1.36792        3.84001        2.42392
H          2.46598        5.19394        2.67209
H          0.09666        6.00421        2.47744
H         -0.04376        5.25906        0.86952
H          1.06192        6.62683        1.12124
H          3.03185        5.18498        0.22203
H          1.93443        3.82421       -0.02402
H          2.51961        1.55062        0.80850
H          4.34730       -0.01031        1.44321
H          6.59034        0.86546        2.04861
H          8.21134        2.84191        1.77195
H          7.51036        3.52736        3.24867
H          7.55520        4.49580        1.76252
H          5.18883        4.87968        1.37669
