28
1-N-PENTYLCYCLOPENTENE.gamout	Energy:    -391.3557694
C          1.85139        1.55292        4.67034
C          3.26376        0.95791        4.85893
C          4.40223        1.65748        4.17062
C          1.23835        1.40402        3.26877
C          4.77427        3.09887        4.47370
C          5.28619        1.11224        3.31878
C          1.74601        2.39916        2.21740
C          5.83315        3.44196        3.39813
C          6.37501        2.07481        2.90811
C          1.06563        2.23893        0.85661
H          1.85022        2.61745        4.95853
H          1.19235        1.04791        5.39380
H          3.47643        0.95445        5.94368
H          3.25183       -0.09854        4.54629
H          1.40334        0.37356        2.90657
H          0.14405        1.51958        3.35161
H          3.91220        3.78239        4.44502
H          5.18541        3.16841        5.49801
H          5.25847        0.07012        2.99296
H          1.57819        3.42335        2.59267
H          2.83331        2.28775        2.10029
H          5.34331        3.96001        2.56039
H          6.62354        4.10691        3.77234
H          7.33011        1.81286        3.39985
H          6.57642        2.06469        1.82513
H         -0.02448        2.37373        0.93664
H          1.24510        1.23649        0.43735
H          1.44196        2.97484        0.13135
