20
1-NAPHTHYLAMINE.gamout	Energy:    -440.6798277
C          6.85738        1.18142        1.55325
C          6.90804        1.82784        0.29449
C          5.71468        0.51323        1.93865
C          5.81993        1.78039       -0.55405
C          4.57179        0.44558        1.09157
C          3.38604       -0.23019        1.49283
C          2.29776       -0.26668        0.64739
C          4.63084        1.08825       -0.19280
C          3.48414        1.01166       -1.06057
N          3.50368        1.64288       -2.30088
C          2.34591        0.34367       -0.62501
H          7.72007        1.22051        2.22076
H          7.80751        2.36932       -0.00360
H          5.66701        0.02165        2.91250
H          5.88035        2.30447       -1.50816
H          3.34930       -0.71085        2.47134
H          1.38557       -0.78271        0.95346
H          2.75405        1.39879       -2.93375
H          4.39475        1.72765       -2.76990
H          1.47602        0.28716       -1.28337
