25
1-NONYNE.gamout	Energy:    -352.0479577
C          6.08973        1.95096        1.08968
C          4.82337        2.81699        1.16491
C          3.70231        2.22452        2.02454
C          6.88698        1.86846        2.39605
C          2.44817        3.12007        2.06137
C          8.17832        1.05238        2.27412
C          1.35398        2.56284        2.85758
C          8.98252        0.98721        3.57359
C          0.45701        2.08843        3.52033
H          5.81433        0.93192        0.76620
H          6.74564        2.35215        0.29970
H          4.44118        2.97892        0.14329
H          5.09149        3.81574        1.55236
H          4.04908        2.06572        3.05638
H          3.42078        1.23249        1.63665
H          7.13424        2.89132        2.73153
H          6.26277        1.43129        3.19254
H          2.08979        3.29432        1.03244
H          2.71614        4.11174        2.46381
H          7.93053        0.02969        1.94269
H          8.80421        1.48474        1.47527
H          8.39695        0.52084        4.38103
H          9.90471        0.40143        3.44876
H          9.26918        1.99501        3.91210
H         -0.33922        1.67193        4.10510
