27
1-NONENE.gamout	Energy:    -353.2955693
C          4.78059        0.64346       -1.19358
C          3.91084        0.58759       -0.18000
C          2.49219        1.08297       -0.21430
C          1.45448       -0.02695        0.02960
C          0.00933        0.47930        0.01025
C         -1.02973       -0.61781        0.25998
C         -2.47600       -0.11407        0.23993
C         -3.51392       -1.21181        0.49543
C         -4.95812       -0.70740        0.47457
H          5.79653        0.25706       -1.09526
H          4.50621        1.07934       -2.15805
H          4.23730        0.14261        0.76796
H          2.36225        1.85678        0.56384
H          2.29094        1.57280       -1.18059
H          1.58281       -0.81375       -0.73208
H          1.65978       -0.50730        1.00170
H         -0.10749        1.27131        0.77052
H         -0.19557        0.96053       -0.96169
H         -0.90990       -1.41130       -0.49804
H         -0.82431       -1.09664        1.23310
H         -2.59422        0.68112        0.99686
H         -2.68285        0.36313       -0.73392
H         -3.39056       -2.00663       -0.25964
H         -3.30261       -1.68582        1.46888
H         -5.20838       -0.26107       -0.50025
H         -5.67130       -1.52298        0.66328
H         -5.12004        0.06389        1.24347
