13
1-PENTYNE.gamout	Energy:    -195.0136704
C          0.95263        1.76932        2.12629
C          2.00943        0.64600        2.19199
C          3.39370        1.12390        2.15187
C          0.97934        2.56488        0.82062
C          4.53702        1.52520        2.11541
H          1.10058        2.44718        2.98104
H         -0.03791        1.30637        2.26007
H          1.86512        0.05830        3.11356
H          1.85092       -0.05349        1.35312
H          0.21487        3.35520        0.82464
H          1.95913        3.03994        0.66760
H          0.78443        1.91122       -0.04391
H          5.54831        1.88024        2.08761
