26
2,2,3,3-TETRAMETHYLBUTANE.gamout	Energy:    -315.2562408
C          2.09382        2.23433        1.69164
C          3.51363        2.17154        2.41248
C          3.72287        0.81334        3.11702
C          3.64675        3.27930        3.48015
C          4.66420        2.35859        1.40015
C          1.99550        3.45800        0.75520
C          1.84530        0.97030        0.83991
C          0.94709        2.34231        2.72041
H          3.80932       -0.01340        2.40009
H          4.65416        0.83663        3.70110
H          2.90721        0.57579        3.81310
H          4.67095        3.29015        3.88006
H          3.44477        4.27892        3.07256
H          2.97022        3.11628        4.32937
H          4.60706        1.65057        0.56218
H          4.68425        3.37444        0.98401
H          5.62954        2.19353        1.90021
H          0.97175        3.54568        0.36367
H          2.22910        4.39854        1.27192
H          2.66610        3.37297       -0.11043
H          1.72568        0.07282        1.46072
H          0.91954        1.08686        0.25799
H          2.65878        0.78557        0.12581
H         -0.02137        2.26777        2.20506
H          0.97769        1.54132        3.47161
H          0.95912        3.30362        3.25070
