27
2,2,3-TRIMETHYL-3-PENTANOL.gamout	Energy:    -390.3970065
C          1.44765       -0.95745       -1.35444
C          1.12130       -0.20924       -0.04542
C          2.07561        1.00034        0.07121
C         -0.38882        0.28753       -0.01067
C         -1.39077       -0.89449       -0.00712
C         -2.87195       -0.50251        0.03691
O         -0.59955        1.07839        1.17312
C         -0.70123        1.25008       -1.16509
C          1.41564       -1.15678        1.13923
H          2.50362       -1.26510       -1.35073
H          0.84577       -1.86723       -1.48264
H          1.29851       -0.32239       -2.23705
H          2.04884        1.63197       -0.82579
H          1.82223        1.62489        0.93616
H          3.11014        0.64802        0.18926
H         -1.21175       -1.52679       -0.88890
H         -1.17817       -1.52900        0.86640
H         -3.07517        0.19026        0.86448
H         -3.20111       -0.02352       -0.89497
H         -3.49434       -1.39682        0.18036
H         -0.54329        0.51444        1.95245
H         -0.68332        0.73535       -2.13364
H         -1.69853        1.68144       -1.02482
H          0.01186        2.08054       -1.19334
H          2.48116       -1.42484        1.14304
H          1.20436       -0.68653        2.11100
H          0.84751       -2.09371        1.07788
