29
2,2,5-TRIMETHYLHEXANE.gamout	Energy:    -354.5227062
C          3.22804       -0.02963       -0.05917
C          1.88232        0.48542        0.46798
C          0.71815       -0.35290       -0.09771
C         -0.67327        0.22643        0.18053
C         -1.88369       -0.51678       -0.44627
C         -3.16633        0.22311       -0.01982
H          4.06110        0.59219        0.29986
H          3.41372       -1.06244        0.27712
H          3.25410       -0.02655       -1.15901
C          1.88056        0.53315        2.00267
H          1.75375        1.51892        0.09831
H          0.86399       -0.44559       -1.18488
H          0.79469       -1.37425        0.31049
H         -0.84101        0.27267        1.26789
H         -0.69424        1.27161       -0.17389
C         -1.79654       -0.51423       -1.98430
C         -1.95513       -1.96885        0.06545
H         -4.06067       -0.26686       -0.43233
H         -3.26770        0.24155        1.07562
H         -3.16047        1.26469       -0.37476
H         -1.98584       -1.99836        1.16504
H         -1.09206       -2.56340       -0.26429
H         -2.86132       -2.46889       -0.30725
H         -0.92837       -1.08100       -2.34736
H         -1.71932        0.51160       -2.37537
H         -2.69440       -0.97238       -2.42461
H          2.73275        1.11766        2.37908
H          1.95939       -0.48257        2.42260
H          0.96544        0.99173        2.40134
