11
2,2-DICHLOROPROPANE.gamout	Energy:   -1037.7960624
C          2.08793        0.39252        1.62244
C          2.05397        1.91151        1.65291
C          0.99338        2.49521        2.57118
Cl         3.69203        2.52270        2.18819
Cl         1.76227        2.52533       -0.04446
H          2.28798        0.01122        2.63399
H          2.86995        0.03276        0.94416
H          1.11496        0.01156        1.28146
H          1.01763        3.59069        2.55041
H          1.17332        2.15288        3.60028
H          0.00030        2.15268        2.24771
