24
2,2-DIMETHYL-3-PENTANOL.gamout	Energy:    -351.1420625
C          1.32986        1.60767        0.47490
C          1.04216        0.17215       -0.00793
C          1.99529       -0.78960        0.72974
C         -0.42585       -0.22685        0.34733
C         -1.52181        0.64771       -0.27709
C         -2.92462        0.31144        0.23640
O         -0.67470       -1.60789        0.07474
C          1.30194        0.08102       -1.52335
H          2.39833        1.83853        0.35613
H          0.76723        2.36108       -0.09293
H          1.08050        1.72823        1.53991
H          1.86397       -0.71264        1.81965
H          1.81270       -1.83279        0.44402
H          3.04232       -0.54490        0.49921
H         -0.51439       -0.15634        1.44370
H         -1.30636        1.70594       -0.07152
H         -1.49316        0.53548       -1.37392
H         -2.99213        0.46876        1.32353
H         -3.68205        0.94775       -0.24266
H         -3.18023       -0.73731        0.03586
H         -0.73371       -1.73933       -0.87889
H          2.35487        0.30815       -1.74360
H          1.10726       -0.93003       -1.91249
H          0.68740        0.79244       -2.09222
