20
2,2-DIMETHYLBUTANOIC_ACID.gamout	Energy:    -385.8522584
O          1.07001       -0.01515       -1.36088
O          1.28812       -0.65958        0.76810
C         -0.64026        0.70464        0.20229
C         -1.65651       -0.30193        0.81329
C         -0.30611        1.77821        1.26405
C         -1.20513        1.38226       -1.05743
C          0.65955       -0.06079       -0.07378
C         -2.04656       -1.48326       -0.07719
H         -1.22742       -0.68055        1.75174
H         -2.55556        0.27313        1.08586
H         -1.21627        2.33856        1.52117
H          0.09285        1.31740        2.17632
H          0.43673        2.49387        0.88432
H         -0.50078        2.12199       -1.45915
H         -2.13865        1.90465       -0.80449
H         -1.41889        0.66380       -1.85703
H         -2.74567       -2.14443        0.45376
H         -2.53943       -1.15986       -1.00457
H         -1.16987       -2.08915       -0.35033
H          1.89544       -0.52271       -1.41725
