32
2,3,3-TRIMETHYLHEPTANE.gamout	Energy:    -393.7726365
C         -0.24938       -0.03807        0.44829
C          0.63512        1.20279        0.31181
C          2.12108        0.87304        0.12642
C          2.98465        2.13027       -0.03287
C          4.53337        1.99428       -0.03629
C          5.10880        1.11674       -1.20877
C          5.10373        3.42331       -0.18748
C          5.01683        1.45957        1.32636
C          4.48019        1.43302       -2.57552
C          5.10235       -0.40496       -0.97674
H         -1.30639        0.23251        0.58442
H         -0.17876       -0.67509       -0.44691
H          0.05595       -0.64585        1.31393
H          0.51692        1.83970        1.20457
H          0.28946        1.80946       -0.54203
H          2.22633        0.22074       -0.75344
H          2.46451        0.28165        0.98981
H          2.73166        2.81827        0.79204
H          2.67313        2.65323       -0.95087
H          6.17309        1.40232       -1.27597
H          6.20242        3.41566       -0.13413
H          4.73474        4.07475        0.61801
H          4.81797        3.88807       -1.14116
H          4.59901        0.47571        1.57314
H          6.11320        1.36773        1.34688
H          4.72793        2.15086        2.13165
H          5.04310        0.93181       -3.37580
H          4.47731        2.50730       -2.80167
H          3.44249        1.07364       -2.63450
H          5.56715       -0.90945       -1.83658
H          5.67424       -0.69275       -0.08571
H          4.08835       -0.81130       -0.87160
