24
2,3-DIMETHYL-1-HEXENE.gamout	Energy:    -314.0352054
C          4.25498        0.73863        2.08899
C          4.42766        2.03429        1.29179
C          3.14091        2.68555        0.76042
C          2.16924        3.21973        1.83498
C          1.30863        4.37077        1.27133
C          1.25637        2.18108        2.48880
C          1.00821        2.38692        3.96201
C          0.66027        1.19173        1.81037
H          3.74302       -0.03148        1.49312
H          3.66240        0.89127        3.00119
H          5.23408        0.33787        2.39039
H          4.96229        2.77387        1.91265
H          5.08800        1.83500        0.43235
H          3.43778        3.53686        0.12752
H          2.61657        1.98731        0.08910
H          2.78881        3.65080        2.64127
H          0.59289        4.74464        2.01693
H          0.73185        4.02784        0.39946
H          1.94134        5.21313        0.95469
H          0.29066        1.66057        4.36453
H          0.62293        3.40049        4.16127
H          1.94973        2.29623        4.52921
H         -0.02415        0.49903        2.30327
H          0.82659        1.03083        0.74445
