16
2,3-DIMETHYL-1,3-BUTADIENE.gamout	Energy:    -234.3047032
C          1.81649        2.19477        1.22761
C          3.27989        2.12580        0.98042
C          3.96876        0.78773        1.12031
C          3.99175        3.21867        0.63936
C          1.12759        3.53280        1.08750
C          1.10474        1.10200        1.56922
H          5.04173        0.87735        0.91155
H          3.85116        0.38227        2.13754
H          3.54663        0.04533        0.42476
H          5.06584        3.15422        0.46037
H          3.54175        4.20414        0.52626
H          1.24558        3.93838        0.07036
H          0.05453        3.44310        1.29578
H          1.54946        4.27515        1.78326
H          1.55481        0.11662        1.68277
H          0.03062        1.16642        1.74805
