19
2,3-XYLENOL.gamout	Energy:    -385.6085227
C          1.27134        1.65395       -0.58277
C          1.92787        0.90088        0.40801
C          1.89850        2.91226       -1.13066
H          2.86587        3.11322       -0.66107
H          1.24964        3.78682       -0.96280
H          2.05626        2.83721       -2.21851
C          0.01617        1.20154       -1.04705
C         -0.54526        0.02833       -0.52129
C          0.12305       -0.70397        0.46093
C          1.36246       -0.26929        0.92873
C         -0.71913        1.98266       -2.10883
H         -0.12714        2.06186       -3.03474
H         -1.67557        1.50713       -2.35970
H         -0.92990        3.01266       -1.77896
H         -1.51527       -0.31172       -0.88747
H         -0.31964       -1.61553        0.86558
H          1.89536       -0.83414        1.69791
O          3.14534        1.35268        0.84944
H          3.49516        0.75890        1.52270
