21
2,4,6-TRINITROTOLUENE.gamout	Energy:    -884.0205336
O          6.75719        4.09721       -0.60714
N          7.15809        3.01389       -0.99985
O          8.16714        2.82801       -1.66123
C          6.32899        1.83158       -0.67143
C          6.93524        0.61286       -0.29824
C          4.95310        2.02094       -0.76457
C          8.42336        0.45943       -0.12385
C          6.02059       -0.42836       -0.03075
C          4.12084        0.94270       -0.48899
N          6.50685       -1.77420        0.34996
C          4.63769       -0.28974       -0.10780
N          2.65755        1.11104       -0.60198
O          5.88025       -2.36597        1.21366
O          7.48121       -2.20835       -0.24344
O          2.24635        2.20354       -0.95754
O          1.96103        0.14590       -0.33296
H          4.53916        2.98819       -1.04138
H          8.88690        1.41096        0.15457
H          8.65574       -0.28899        0.64013
H          8.88519        0.12908       -1.06422
H          3.97833       -1.12255        0.12741
