19
2,4-XYLENOL.gamout	Energy:    -385.6096469
C          3.33160        5.40217        0.67829
C          3.32747        3.90105        0.80482
C          4.54503        3.20345        0.93178
C          2.14723        3.15233        0.80197
O          5.69306        3.95214        0.93328
C          4.55917        1.81270        1.04958
C          2.12948        1.75140        0.91889
C          3.35840        1.09482        1.04277
C          0.82198        0.99469        0.90677
H          2.30939        5.79130        0.58785
H          3.80780        5.87376        1.55164
H          3.90754        5.72455       -0.20264
H          1.19837        3.68683        0.70403
H          6.46500        3.38296        1.02551
H          5.51130        1.28413        1.14795
H          3.38666        0.00720        1.13611
H          0.28203        1.14162       -0.04214
H          0.98309       -0.08387        1.03562
H          0.15509        1.33360        1.71511
