23
2,4-DIMETHYLPENTANE.gamout	Energy:    -276.0010725
C          3.47974        3.46081        2.29308
C          2.03454        3.94020        2.02169
C          3.88330        2.05046        1.79396
C          1.75236        4.11651        0.52131
C          0.94536        3.08824        2.68991
C          5.36132        2.02573        1.37476
C          3.61212        0.94968        2.83154
H          3.67966        3.52215        3.37634
H          4.15096        4.19970        1.82641
H          1.97382        4.94481        2.47532
H          3.28772        1.81856        0.89574
H          1.74723        3.15073       -0.00668
H          2.50992        4.75642        0.04490
H          0.76854        4.58109        0.36055
H         -0.03599        3.57593        2.59440
H          1.14519        2.94460        3.76174
H          0.86020        2.09570        2.22289
H          5.66151        1.02584        1.02800
H          6.01202        2.29530        2.22208
H          5.55792        2.73985        0.56163
H          3.86959       -0.04085        2.42752
H          2.56133        0.92067        3.14348
H          4.22413        1.11158        3.73325
