15
2,4-DICHLOROBENZOTRIFLUORIDE.gamout	Energy:   -1487.4471329
C          7.24326        3.04250       -0.95197
F          7.88848        2.90358       -2.12661
F          8.17793        3.22351        0.00148
F          6.53616        4.18798       -1.02837
C          6.34467        1.85969       -0.64882
C          6.84798        0.55270       -0.51205
C          4.96761        2.06338       -0.49493
Cl         8.55001        0.19536       -0.68515
C          5.99465       -0.51473       -0.22822
C          4.10247        1.00826       -0.21163
C          4.62785       -0.27767       -0.07970
Cl         3.56440       -1.61869        0.27886
H          4.56652        3.06995       -0.59735
H          6.39903       -1.51970       -0.12443
H          3.03422        1.18441       -0.09395
