24
2,4-DIMETHYL-TRANS-3-HEXENE.gamout	Energy:    -314.0428739
C          0.77732       18.94683       -0.75257
C          0.80200       19.78488        0.53593
C          0.57945       21.27075        0.32634
C          1.57180       22.14721        0.56685
C         -0.80108       21.65647       -0.14905
C          1.57370       23.64958        0.42353
C          1.84070       24.32624        1.78047
C          2.60635       24.09274       -0.62922
H          0.96521       17.88663       -0.52759
H         -0.19422       19.00595       -1.26428
H          1.55084       19.28897       -1.45584
H          1.76716       19.63461        1.04171
H          0.02736       19.40058        1.22363
H          2.52602       21.73355        0.91824
H         -1.56787       21.24882        0.53085
H         -0.94809       22.73998       -0.21232
H         -1.01288       21.23416       -1.14484
H          0.58337       23.98030        0.07813
H          1.84269       25.42217        1.68007
H          1.07550       24.04950        2.51938
H          2.82101       24.02594        2.18363
H          2.61362       25.18791       -0.73662
H          2.38452       23.65191       -1.61137
H          3.62106       23.77696       -0.33997
