19
2,4-DIMETHYL-1,3-PENTADIENE.gamout	Energy:    -273.5640475
C          3.08966        1.31367        0.68587
C          4.42933        1.91756        0.84692
C          1.87608        1.86316        0.90865
C          5.46636        1.01754        1.48071
C          4.74138        3.15704        0.42594
C          0.61800        1.06527        0.67367
C          1.64803        3.26227        1.42123
H          3.10424        0.25855        0.38622
H          5.17081        0.73746        2.50500
H          5.56626        0.07789        0.91258
H          6.45160        1.50043        1.52178
H          5.74549        3.56545        0.55844
H          4.01625        3.79046       -0.08550
H         -0.03526        1.57248       -0.05684
H          0.83132        0.05578        0.29773
H          0.03231        0.97320        1.60407
H          2.56152        3.71708        1.82060
H          1.26567        3.91867        0.62046
H          0.87990        3.25653        2.21163
