22
2,6-OCTADIENE.gamout	Energy:    -312.8184126
C          4.45725        1.50326        1.99409
C          3.10692        2.00740        1.56708
C          5.46841        1.41260        0.82854
C          1.95364        1.33851        1.68693
C          0.60550        1.84101        1.25881
C          6.81938        0.91078        1.25611
C          7.97108        1.58317        1.14062
C          9.31946        1.08315        1.57096
H          4.35013        0.51295        2.46556
H          4.87830        2.17398        2.76334
H          3.08768        3.00579        1.11097
H          5.57385        2.40226        0.35532
H          5.04818        0.74026        0.06025
H          1.97637        0.34151        2.14418
H          0.67206        2.84346        0.81260
H          0.14457        1.16553        0.51912
H         -0.08959        1.89123        2.11338
H          6.84066       -0.08904        1.70901
H          7.94647        2.58203        0.68757
H         10.02101        1.05050        0.72092
H          9.77060        1.75060        2.32394
H          9.25621        0.07368        2.00153
