32
2,7-DIMETHYLOCTANE.gamout	Energy:    -393.7815440
C         -0.16321       -0.02972        0.02376
C          1.00783        0.87250        0.43445
H         -0.03116       -1.05524        0.39970
H         -1.11813        0.35315        0.41271
H         -0.24833       -0.08499       -1.07360
C          2.34378        0.28744       -0.05920
H          1.04723        0.88823        1.53910
C          0.78246        2.31289       -0.04897
H          2.33761        0.27072       -1.16408
H          2.40009       -0.76750        0.25888
C          3.59924        1.01395        0.43251
H          3.56519        1.09064        1.53364
H          3.60943        2.04919        0.05506
C          4.90161        0.32399        0.01571
H          4.93567        0.24730       -1.08542
H          4.89144       -0.71125        0.39316
C          6.15706        1.05049        0.50743
H          6.16331        1.06713        1.61231
H          6.10076        2.10546        0.18943
C          7.49302        0.46550        0.01370
H          7.45359        0.44981       -1.09095
C          7.71844       -0.97489        0.49705
C          8.66403        1.36773        0.42437
H          8.74921        1.42299        1.52173
H          8.53196        2.39326        0.04847
H          9.61896        0.98492        0.03538
H         -0.20046        2.68628        0.27324
H          0.81355        2.36079       -1.14962
H          1.54252        3.00445        0.33935
H          6.95840       -1.66648        0.10876
H          7.68738       -1.02284        1.59770
H          8.70136       -1.34828        0.17482
