34
2-(2-BUTOXYETHOXY)ETHYL_ACETATE.gamout	Energy:    -693.1285539
O         -2.77078        0.25208        0.00268
O          0.79499       -0.20306       -0.00276
O          4.32129        0.50679       -0.00287
O          5.63405       -1.31850       -0.03440
C         -5.16652        0.32220        0.00395
C         -3.92823       -0.56086       -0.00594
C         -6.47134       -0.48056       -0.00584
C         -1.56313       -0.47235       -0.00327
C         -0.41544        0.52405        0.00400
C         -7.72057        0.40307        0.00429
C          1.94938        0.60242        0.00264
C          3.15214       -0.32486       -0.00903
C          5.51761       -0.11636       -0.01539
C          6.65229        0.87582       -0.00285
H         -5.12690        0.98884       -0.87251
H         -5.12757        0.96910        0.89508
H         -3.92403       -1.21033       -0.90390
H         -3.92335       -1.23012        0.87734
H         -6.49239       -1.13273       -0.89522
H         -6.49315       -1.15325        0.86814
H         -1.49089       -1.11549       -0.90049
H         -1.49035       -1.12896        0.88410
H         -0.48385        1.17952       -0.88372
H         -0.48278        1.16558        0.90194
H         -7.74650        1.06335       -0.87619
H         -8.63857       -0.20191       -0.00338
H         -7.74704        1.04191        0.90039
H          1.97691        1.24745        0.90113
H          1.97366        1.26380       -0.88399
H          3.15416       -0.97964        0.87310
H          3.14966       -0.96120       -0.90453
H          6.57880        1.53819       -0.87717
H          7.60660        0.34162       -0.01368
H          6.58335        1.51078        0.89194
