12
2-(DIFLUOROMETHOXY)-1,1,1-TRIFLUOROETHANE.gamout	Energy:    -689.8147226
C         -1.98122        3.13780        0.21440
C         -0.47137        2.98882        0.10679
C          1.16133        1.29627        0.35792
O         -0.14712        1.63625        0.39757
H         -0.00787        3.67611        0.82831
H         -0.16968        3.26080       -0.91443
F         -2.63084        2.34875       -0.65495
F         -2.31060        4.41581       -0.05910
F         -2.42979        2.84852        1.44533
F          1.89729        2.03626        1.23939
F          1.70563        1.53810       -0.87148
H          1.26379        0.23227        0.59979
