15
2-BUTANETHIOL.gamout	Energy:    -556.2538159
C          2.14713        2.77208        1.56069
C          0.76083        2.14813        1.36583
C          3.30550        1.90998        1.03595
C          3.49064        0.59132        1.78779
S          4.89048        2.87474        0.96921
H          2.18222        3.74639        1.05204
H          2.31532        2.98015        2.63102
H         -0.02050        2.82259        1.74471
H          0.55481        1.96414        0.29996
H          0.65544        1.19238        1.89883
H          3.12763        1.69299       -0.03004
H          4.30992        0.00278        1.35559
H          3.72561        0.77704        2.84697
H          2.57440       -0.01707        1.74658
H          5.00534        3.08598        2.30191
