11
2-CHLOROPYRIDINE.gamout	Energy:    -707.3798477
C          3.08532        0.20298       -0.16452
C          4.35003       -0.39412       -0.20994
C          1.96848       -0.62668       -0.05956
N          2.05774       -1.96093       -0.00106
C          3.25386       -2.50592       -0.04498
C          4.44932       -1.78287       -0.14930
Cl         3.33794       -4.26614        0.03392
H          2.96722        1.28633       -0.20943
H          5.25243        0.21509       -0.29186
H          0.95913       -0.20830       -0.02044
H          5.41065       -2.29405       -0.18107
