13
2-CHLOROPHENOL.gamout	Energy:    -766.4948112
Cl         2.35354       -1.02176        0.10467
O          1.52863        1.79921        0.18793
C          0.46625        0.95754        0.11700
C          0.70739       -0.42707        0.07043
C         -0.85972        1.41126        0.08844
C         -0.35509       -1.32872       -0.00271
C         -1.92207        0.50887        0.01519
C         -1.67271       -0.86558       -0.03064
H         -1.05303        2.48684        0.12433
H         -0.13984       -2.39664       -0.03754
H         -2.94622        0.88441       -0.00588
H         -2.49722       -1.57705       -0.08791
H          1.23428        2.71684        0.21400
