12
2-CIS-1-CHLOROBUTENE.gamout	Energy:    -616.4214525
C          0.49693        0.65239        0.09138
C         -0.18730       -0.49497        0.01297
Cl        -0.42070        2.16750        0.26275
C          1.97665        0.87471        0.05631
C          0.38734       -1.87452       -0.13333
H         -1.27779       -0.43550        0.05898
H          2.25118        1.52925       -0.78525
H          2.31697        1.36955        0.97899
H          2.51764       -0.07344       -0.04971
H          1.48319       -1.88333       -0.17420
H          0.07397       -2.51356        0.70858
H          0.01021       -2.35435       -1.05151
