15
2-CYCLOHEXENE-1-ONE.gamout	Energy:    -308.2715837
C         -2.74107        4.14117       -0.32101
C         -3.52350        2.94933        0.24451
C         -1.27700        4.11913        0.13683
H         -3.21978        5.08833       -0.03197
H         -2.77070        4.09409       -1.42181
C         -0.59066        2.79416       -0.17130
H         -1.22174        4.25953        1.23183
H         -0.68480        4.92476       -0.31716
C         -1.44527        1.58456       -0.12155
C         -2.77267        1.65496        0.09462
H         -4.50663        2.86020       -0.24435
H         -3.74478        3.10660        1.31751
H         -3.34914        0.72804        0.17291
H         -0.93376        0.62820       -0.24791
O          0.60446        2.72345       -0.40557
