31
2-CYCLOHEXENYLCYCLOHEXANONE.gamout	Energy:    -542.6234721
O          0.83450       -2.02773        0.01348
C          0.65244        0.37502        0.30273
C          1.41068        1.38355       -0.59467
C         -0.83721        0.24372        0.05431
C          2.88950        1.50130       -0.20853
C         -1.63615       -0.32661        1.20991
C          3.59575        0.14380       -0.27737
C          1.38684       -0.97960        0.27195
C          2.87464       -0.90932        0.58493
C         -3.05670       -0.75032        0.81868
C         -3.72293        0.30805       -0.06579
C         -1.42993        0.61868       -1.09029
C         -2.91282        0.51978       -1.35027
H          0.78127        0.73282        1.34438
H          0.91175        2.36036       -0.52689
H          1.33836        1.06351       -1.64602
H          2.97081        1.90910        0.81372
H          3.39075        2.22257       -0.87155
H         -1.09429       -1.18501        1.63407
H         -1.67545        0.43150        2.01538
H          4.64442        0.23169        0.04333
H          3.61457       -0.20385       -1.32354
H          2.97339       -0.63599        1.65046
H          3.30198       -1.91171        0.45564
H         -3.00641       -1.70278        0.26637
H         -3.65524       -0.93915        1.72268
H         -3.78158        1.25993        0.48860
H         -4.75624        0.01891       -0.31019
H         -0.82473        1.01473       -1.90848
H         -3.25409        1.42589       -1.87736
H         -3.10004       -0.31333       -2.05282
