24
2-ETHYLNAPHTHALENE.gamout	Energy:    -463.9060647
C          7.71051        3.55618        1.72226
C          6.60427        2.92011        0.86381
C          5.38288        2.52353        1.66398
C          4.23794        3.29817        1.67318
C          5.40686        1.33786        2.45601
C          3.09817        2.94810        2.45099
C          4.32388        0.96541        3.22007
C          3.13862        1.75351        3.24542
C          1.91547        3.74030        2.46793
C          1.99887        1.40142        4.02051
C          0.82728        3.37269        3.23128
C          0.86839        2.19176        4.01564
H          7.34864        4.47263        2.21081
H          8.04408        2.86676        2.51163
H          8.58381        3.81628        1.10582
H          6.30904        3.62404        0.07112
H          7.00914        2.02984        0.35522
H          4.19611        4.20729        1.06857
H          6.30325        0.71395        2.44879
H          4.35984        0.05147        3.81647
H          1.88360        4.64914        1.86371
H          2.03209        0.49162        4.62351
H         -0.07175        3.99168        3.23382
H          0.00135        1.91025        4.61569
