21
2-ETHOXYETHYL_ACETATE.gamout	Energy:    -460.9594726
C         -1.93797        1.29854        0.87325
C         -2.85191        0.95970       -0.28485
H         -3.76211        1.55897       -0.19151
H         -3.11538       -0.10825       -0.28175
H         -2.36803        1.17602       -1.24851
C         -0.33808       -0.31253       -0.02739
C          1.03388       -0.81073        0.39634
C          2.71851       -2.33085       -0.29205
C          3.04664       -3.33507       -1.38029
H          2.29596       -4.13712       -1.40574
H          4.03153       -3.78579       -1.19411
H          3.06750       -2.84611       -2.36410
O         -0.74754        0.65340        0.94283
H         -1.04235       -1.15695       -0.06316
H         -0.27677        0.13802       -1.02905
O          1.44591       -1.76402       -0.55322
H          0.97307       -1.25344        1.40799
H          1.74102        0.03837        0.44571
H          3.48168       -1.52985       -0.25573
H          2.71074       -2.81881        0.70153
O         -2.21457        2.10226        1.72619
