26
2-ETHYL-HEXANOIC_ACID.gamout	Energy:    -464.3718614
C         -4.18793       -0.14088       -0.25648
C         -2.85475        0.59387       -0.10512
H         -4.36020       -0.82853        0.58567
H         -4.21161       -0.73515       -1.18297
H         -5.03114        0.56418       -0.28990
C         -1.64266       -0.34259       -0.05493
H         -2.87391        1.20555        0.81229
H         -2.72686        1.30239       -0.94076
C         -0.31431        0.40479        0.09161
H         -1.61777       -0.95824       -0.97077
H         -1.76926       -1.04676        0.78447
C          0.93568       -0.49822        0.08847
H         -0.31917        0.99409        1.02226
H         -0.20583        1.12405       -0.73583
C          2.23322        0.33655        0.12710
C          3.51900       -0.48555        0.02466
H          2.23849        0.92726        1.05597
H          2.18710        1.05754       -0.70386
H          3.63232       -1.16958        0.87874
H          3.53637       -1.08867       -0.89572
H          4.39980        0.17191        0.01182
C          0.89665       -1.44551        1.27616
H          0.93242       -1.11140       -0.82565
O          0.88770       -2.74797        0.91032
H          0.86641       -3.28165        1.72144
O          0.87921       -1.10725        2.43646
