24
2-ETHYL-1-HEXENE.gamout	Energy:    -314.0393170
C          3.25920        1.62394        2.96652
C          2.64768        2.79543        2.22274
C          2.03537        2.52190        0.86344
C          2.63679        4.02765        2.75227
C          4.46628        0.96873        2.26552
C          0.81347        1.58868        0.89677
C          5.67503        1.89534        2.10106
C          6.86738        1.21745        1.42221
H          2.49076        0.84914        3.12315
H          3.56601        1.96000        3.96885
H          2.79629        2.08102        0.19718
H          1.74502        3.47962        0.40720
H          3.06783        4.23153        3.73471
H          2.19445        4.87495        2.22346
H          4.16327        0.58530        1.27705
H          4.76451        0.08381        2.85187
H          0.39818        1.46163       -0.11353
H          1.07044        0.58947        1.27676
H          0.02377        2.00157        1.54150
H          5.97848        2.26703        3.09458
H          5.37762        2.78534        1.52462
H          7.71754        1.90796        1.32289
H          7.21150        0.34350        1.99750
H          6.60172        0.86612        0.41288
