16
2-ETHYL-1,3-BUTADIENE.gamout	Energy:    -234.3003001
C          4.20606        1.64508        2.00628
C          3.20554        2.08361        0.92222
C          1.77949        1.65402        1.20280
C          1.23212        0.60039        0.56353
C          0.98246        2.38730        2.19986
C          1.34760        3.49531        2.86517
H          4.23372        0.54852        2.08504
H          3.93552        2.04326        2.99371
H          5.21972        1.99650        1.76252
H          3.51731        1.66204       -0.04425
H          3.24540        3.17909        0.80909
H          0.21384        0.26889        0.77715
H          1.78556        0.04003       -0.19224
H         -0.01303        1.97328        2.39090
H          0.66969        3.96933        3.57602
H          2.31962        3.97143        2.72734
