20
2-ETHYL-4-ETHOXYMETHYL-1,3-DIOXOLANE.gamout	Energy:    -385.8127788
C          2.92479        4.21578        6.61416
C          2.97477        3.46115        5.28477
C          3.80050        2.19192        5.35178
C          5.05772       -0.47178        3.46031
C          5.88588        1.38998        5.05037
C          5.07525        1.00942        3.79836
O          5.16332        2.48404        5.58690
O          3.75949        1.48057        4.12024
H          2.52270        3.57952        7.41762
H          3.92694        4.54962        6.91713
H          2.27946        5.10190        6.53522
H          3.39693        4.08926        4.48619
H          1.96218        3.16951        4.96678
H          3.42931        1.52151        6.15592
H          4.38354       -0.66172        2.61448
H          6.06586       -0.81268        3.17987
H          4.71026       -1.06340        4.31947
H          5.92074        0.55022        5.77066
H          6.90953        1.71632        4.83098
H          5.43837        1.58588        2.93012
