15
2-ETHYLTHIOPHENE.gamout	Energy:    -631.1550888
S         -0.74775        1.43944       -0.11709
C          1.81532        0.38604        0.46982
C          0.35016        0.12819        0.23014
C          2.74048       -0.30259       -0.54522
C         -0.33063       -1.06787        0.23683
C         -1.72651       -0.93402       -0.03781
C         -2.10364        0.36724       -0.25121
H          1.99997        1.47048        0.45290
H          2.07824        0.05339        1.48794
H          2.61555       -1.39449       -0.51920
H          3.79432       -0.07639       -0.32484
H          2.52024        0.03601       -1.56778
H          0.15442       -2.02434        0.43489
H         -2.42172       -1.77307       -0.07288
H         -3.09275        0.75782       -0.47711
