11
2-FLUOROPROPANE.gamout	Energy:    -218.1124016
C         34.01095        0.96828       -0.03888
C         32.70378        1.73884       -0.09971
C         32.84002        3.23075        0.14556
F         32.14193        1.55205       -1.38078
H         34.44437        1.04010        0.96975
H         33.84308       -0.09202       -0.27171
H         34.73317        1.37799       -0.76013
H         31.97667        1.30444        0.60555
H         31.86715        3.73001        0.04093
H         33.21660        3.41233        1.16325
H         33.54431        3.67654       -0.57203
