19
2-HEXANONE.gamout	Energy:    -310.6880573
O          1.70535       -1.30837        0.01807
C         -0.91725       -0.23025        0.00794
C         -2.22255        0.57192        0.00054
C          0.32639        0.65524        0.00224
C         -3.47403       -0.30841        0.00607
C          1.65039       -0.09551        0.00893
C          2.90797        0.75300        0.00341
H         -0.88441       -0.90215       -0.86393
H         -0.88629       -0.88876        0.89003
H         -2.24344        1.24311        0.87632
H         -2.24165        1.22971       -0.88538
H          0.32834        1.32458       -0.87731
H          0.32692        1.33810        0.87134
H         -3.50226       -0.95136        0.89916
H         -4.39079        0.29863        0.00035
H         -3.50044       -0.96514       -0.87703
H          2.92680        1.40327       -0.88537
H          2.92535        1.41705        0.88199
H          3.79452        0.10933        0.00918
