14
2-IODOBUTANE.gamout	Energy:    -455.3309289
C         34.99341       30.02610       -0.02792
C         33.65703       29.28402       -0.06179
C         32.79594       29.54471       -1.28733
I         34.03726       27.09499        0.11345
C         34.82787       31.55056        0.06365
H         35.57196       29.67549        0.83754
H         35.58028       29.76461       -0.92229
H         33.09256       29.47779        0.85872
H         31.85960       28.97426       -1.25270
H         32.53389       30.61414       -1.32971
H         33.32754       29.28585       -2.21363
H         35.81072       32.03064        0.16965
H         34.35030       31.97011       -0.83280
H         34.22021       31.83484        0.93626
