24
2-ISOPROPYL-1-PENTENE.gamout	Energy:    -314.0378046
C          0.13291       19.12045        0.77827
C          1.36728       20.00112        0.57542
C          1.10594       21.19569       -0.36169
C          2.32089       22.08169       -0.58485
C          2.43024       23.38325        0.19921
C          3.27142       21.72825       -1.46172
C          1.38411       24.41162       -0.27214
C          2.34994       23.17719        1.72170
H          0.35357       18.27424        1.44444
H         -0.69601       19.69121        1.22534
H         -0.22496       18.71080       -0.17920
H          2.19033       19.40044        0.15770
H          1.72348       20.36839        1.54970
H          0.27004       21.78679        0.04430
H          0.76017       20.80763       -1.33306
H          3.42364       23.80443       -0.02395
H          4.16296       22.33906       -1.61795
H          3.19120       20.81558       -2.05677
H          1.51675       25.36611        0.25907
H          1.47487       24.60331       -1.35030
H          0.35854       24.06493       -0.07500
H          2.49228       24.13379        2.24503
H          3.12398       22.48040        2.07254
H          1.36976       22.78094        2.02749
