19
2-ISOPROPOXYETHANOL.gamout	Energy:    -347.7505092
O         -0.21040        0.68587        0.14746
O          2.22040        3.21062        1.14414
C         -1.58407        0.33830        0.32428
C          0.22600        1.84017        0.82748
C         -2.50380        1.22300       -0.52018
C         -1.71366       -1.13838       -0.02820
C          1.70064        2.05735        0.49984
H         -1.83942        0.47501        1.39390
H         -0.34510        2.73763        0.53137
H          0.09673        1.71221        1.92213
H         -3.55692        0.96685       -0.33267
H         -2.37308        2.28807       -0.28561
H         -2.29391        1.07557       -1.58963
H         -2.74826       -1.48237        0.11057
H         -1.05325       -1.74531        0.60553
H         -1.43198       -1.30204       -1.07868
H          2.27457        1.15165        0.75891
H          1.81146        2.22530       -0.57975
H          2.33534        3.03616        2.08457
