24
2-METHYL-3-ETHYL-2-PENTENE.gamout	Energy:    -314.0411190
C          3.71391        0.75147        1.95035
C          3.69645        1.88192        0.90705
C          3.21485        3.20883        1.47134
C          4.32043        4.04700        2.09302
C          1.92285        3.60690        1.42389
C          5.05153        4.93796        1.07397
C          1.42919        4.93072        1.96356
C          0.80804        2.77955        0.82460
H          2.69770        0.53575        2.31054
H          4.13146       -0.17400        1.52539
H          4.32413        1.02612        2.82363
H          3.09082        1.57146        0.04522
H          4.71928        2.01518        0.51808
H          5.05524        3.36972        2.55858
H          3.93649        4.67284        2.90935
H          5.88543        5.47845        1.54692
H          5.46423        4.34284        0.24564
H          4.36397        5.67807        0.63985
H          2.22232        5.57496        2.35508
H          0.90532        5.49391        1.17287
H          0.69151        4.77277        2.76911
H          1.12381        1.79169        0.47541
H          0.00564        2.62833        1.56618
H          0.34565        3.30827       -0.02671
