18
2-METHOXYETHYL_ACETATE.gamout	Energy:    -421.7054148
O          0.83403       -0.48425       -0.00159
O         -2.64328        0.43789       -0.00315
O          2.26418        1.25159        0.00703
C         -0.28022        0.42022        0.00065
C         -1.53723       -0.43193       -0.00507
C          2.06858        0.05977        0.00219
C         -3.88707       -0.22437       -0.00832
C          3.13575       -1.00508       -0.00045
H         -0.24095        1.06130        0.89197
H         -0.23805        1.06914       -0.88482
H         -1.54958       -1.09019        0.88499
H         -1.54663       -1.08236       -0.90091
H         -4.00517       -0.86364        0.88620
H         -4.00179       -0.85592       -0.90874
H         -4.66941        0.54437       -0.00650
H          3.02504       -1.64417       -0.88808
H          3.02266       -1.65083        0.88203
H          4.12292       -0.53388        0.00267
