21
2-METHYL-CIS-3-HEXENE.gamout	Energy:    -274.7756383
C          4.52105        3.32016        2.31815
C          3.24330        3.54054        1.96937
C          5.30566        2.07571        2.66101
C          2.07186        2.60423        1.77852
C          1.56560        2.67534        0.32602
C          0.94629        2.94963        2.77093
C          4.62827        0.70486        2.63837
H          5.14449        4.22025        2.37181
H          2.98150        4.59040        1.78290
H          5.74452        2.23760        3.66238
H          6.17988        2.05193        1.98552
H          2.38624        1.57360        1.97288
H          0.70268        2.00862        0.17780
H          1.24639        3.69836        0.07171
H          2.35250        2.38413       -0.38373
H          0.59967        3.98479        2.62527
H          0.08132        2.28384        2.63063
H          1.28933        2.85397        3.81062
H          5.35626       -0.07368        2.90804
H          3.80044        0.64590        3.35888
H          4.23500        0.45777        1.64233
