18
2-METHYL-1-BUTANOL.gamout	Energy:    -272.6225234
C         -2.32821        0.81935       -0.01365
C         -0.90429        1.09761       -0.50297
H         -2.66585       -0.18910       -0.28978
H         -3.03844        1.53624       -0.44959
H         -2.39232        0.90689        1.08194
C          0.17795        0.18518        0.10559
H         -0.65030        2.14564       -0.27301
H         -0.87153        1.01204       -1.60315
C         -0.03039       -1.29909       -0.22030
H         -0.99167       -1.66576        0.16309
H          0.76647       -1.90852        0.22324
H         -0.01695       -1.46304       -1.31051
C          1.56146        0.65984       -0.34276
H          0.14569        0.30712        1.20325
O          2.56229       -0.11553        0.30849
H          1.68205        1.73001       -0.09479
H          1.64716        0.56041       -1.44209
H          3.43536        0.17008        0.02161
