19
2-METHYL_TETRAHYDROFURAN.gamout	Energy:    -310.6758018
C          3.50550        3.64293        0.86696
C          3.66393        2.52698        1.90631
C          3.20751        1.14303        1.40966
O          3.03113        2.85457        3.14795
C          1.67764        1.01056        1.38615
C          1.61168        2.79971        3.14773
C          1.09459        1.41955        2.74477
H          4.14971        3.43796       -0.00060
H          2.47499        3.74088        0.49850
H          3.80838        4.60374        1.30469
H          4.73019        2.46704        2.16967
H          3.63405        0.94978        0.41329
H          3.62120        0.38142        2.08941
H          1.25061        1.64763        0.59413
H          1.39403       -0.02324        1.13835
H          1.30396        3.05890        4.16961
H          1.19472        3.56966        2.47085
H         -0.00643        1.43321        2.71507
H          1.39228        0.68830        3.51373
