29
2-METHYLOCTANE.gamout	Energy:    -354.5231228
C          3.09601        1.45931        0.32809
C          2.85847        0.08950       -0.32237
C          4.04549       -0.84708       -0.06041
C          1.53909       -0.56046        0.13706
C          0.26435        0.19031       -0.26022
C         -1.02171       -0.49866        0.20642
C         -2.29797        0.24441       -0.19824
C         -3.58614       -0.43780        0.27262
C         -4.85886        0.30593       -0.13602
H          4.03123        1.91092       -0.03454
H          2.28407        2.16760        0.11518
H          3.17798        1.35959        1.42260
H          2.78940        0.23936       -1.41520
H          4.16266       -1.03867        1.01830
H          3.90958       -1.81761       -0.56024
H          4.98673       -0.40832       -0.42338
H          1.48783       -1.58104       -0.27858
H          1.56633       -0.68413        1.23490
H          0.28225        1.21370        0.14741
H          0.23999        0.30145       -1.35859
H         -1.05452       -1.52577       -0.19682
H         -0.99578       -0.60660        1.30484
H         -2.26419        1.27256        0.20307
H         -2.32247        0.35042       -1.29711
H         -3.61615       -1.46578       -0.12679
H         -3.55727       -0.54251        1.37057
H         -4.93282        0.39353       -1.23117
H         -5.76042       -0.21395        0.21929
H         -4.87502        1.32558        0.27947
