15
2-METHYL-1-PROPANETHIOL.gamout	Energy:    -556.2536629
C          1.62583        2.63584        1.37809
S         -0.00370        1.79019        1.22924
C          2.85820        1.82180        0.95635
C          3.11119        0.61988        1.87416
C          4.08821        2.74124        0.90397
H          1.51409        3.51504        0.72745
H          1.73770        3.01014        2.40669
H          0.13228        0.93042        2.26438
H          2.66885        1.44407       -0.06245
H          4.00592        0.06732        1.55331
H          3.27526        0.94899        2.91332
H          2.26734       -0.08326        1.86539
H          4.31474        3.15656        1.89894
H          4.97610        2.18865        0.56391
H          3.93264        3.58454        0.21443
