13
2-METHOXYETHANOL.gamout	Energy:    -269.2257163
O         -1.73639       -2.14462        0.83283
O          1.14049       -0.17438       -0.05487
C         -1.02951       -1.07615        0.24511
C          0.44901       -1.26066        0.54560
C         -3.12751       -2.08558        0.62658
H         -1.18629       -1.05435       -0.85041
H         -1.37183       -0.10491        0.65080
H          0.78447       -2.22964        0.13695
H          0.59803       -1.27925        1.63925
H         -3.57368       -2.95704        1.12159
H         -3.37741       -2.11448       -0.45079
H         -3.55983       -1.16359        1.05879
H          2.08445       -0.25394        0.11257
