18
2-METHYL-2-BUTANOL.gamout	Energy:    -272.6298730
C          1.83083        0.87454       -0.11908
O          3.13835        1.39782       -0.40729
C          0.96282        2.10657        0.15016
C          1.30999        0.10588       -1.34250
C          1.89600       -0.07373        1.10146
C          2.45577        0.53749        2.38681
H          3.73367        0.67287       -0.63094
H         -0.06046        1.80974        0.41920
H          1.38074        2.70889        0.96623
H          0.92046        2.73716       -0.74776
H          0.28718       -0.26255       -1.17491
H          1.94827       -0.76546       -1.55666
H          1.30510        0.75568       -2.22791
H          0.88513       -0.47280        1.28501
H          2.51330       -0.94205        0.81326
H          2.58741       -0.23750        3.15497
H          3.43100        1.01015        2.20675
H          1.78370        1.30130        2.80292
