22
2-METHYL-1-PHENYL-1-PROPENE.gamout	Energy:    -387.7609224
C          2.08331        1.35295        3.98147
C          2.54781        1.38545        2.71365
C          3.92980        1.57011        2.22598
C          2.93832        1.44930        5.22040
C          0.60929        1.17547        4.24835
C          4.34386        0.87076        1.07306
C          4.85442        2.45064        2.82342
C          5.63408        1.01309        0.56205
C          6.14618        2.59544        2.31131
C          6.54599        1.87298        1.18336
H          1.81225        1.22099        1.91901
H          2.83167        2.43591        5.70379
H          4.00221        1.28429        5.01682
H          2.60978        0.70369        5.96184
H          0.02539        1.10800        3.32101
H          0.21570        2.01936        4.84025
H          0.42385        0.26470        4.84286
H          3.63810        0.19815        0.58042
H          4.54880        3.05391        3.67757
H          5.92908        0.45198       -0.32695
H          6.84117        3.28780        2.79072
H          7.55493        1.98891        0.78345
