16
2-METHYL-CIS-1,3-PENTADIENE.gamout	Energy:    -234.3046517
C          1.13302        3.71619        0.72943
C          2.12694        2.83424        0.93843
C          2.10934        1.72575        1.90142
C          3.15922        0.88398        2.05864
C          0.86193        1.54200        2.73352
C          4.47925        0.88074        1.34659
H          0.19092        3.68315        1.27838
H          1.23970        4.50890       -0.01160
H          3.03301        2.94824        0.33971
H          3.04444        0.09077        2.80525
H          0.96293        0.68586        3.41192
H          0.65267        2.43732        3.34097
H         -0.02109        1.37229        2.09659
H          4.57628        1.67582        0.59840
H          5.30819        0.99268        2.06542
H          4.63917       -0.08304        0.83462
