23
3,3-DIMETHYLPENTANE.gamout	Energy:    -276.0031633
C          3.30794        2.63016        2.53048
C          2.45093        1.67200        1.66066
C          1.63713        0.67178        2.52475
C          1.50361        2.53285        0.80221
C          3.35585        0.85257        0.71922
C          4.31836        1.98795        3.48517
C          0.69014        1.26604        3.57096
H          2.63355        3.27835        3.11184
H          3.84608        3.30821        1.84741
H          2.33925       -0.01240        3.02715
H          1.05277        0.03661        1.83873
H          0.84590        1.90478        0.18298
H          0.86784        3.18186        1.42032
H          2.07997        3.18272        0.12744
H          2.74971        0.21809        0.05590
H          3.97229        1.50758        0.08531
H          4.03148        0.19159        1.27957
H          3.82883        1.35936        4.24291
H          5.05186        1.36405        2.95513
H          4.88033        2.76610        4.02141
H          1.22695        1.84949        4.33251
H         -0.06476        1.92345        3.11654
H          0.15085        0.46387        4.09491
