19
3,3-DIMETHYL-1-PENTYNE.gamout	Energy:    -273.5306879
C         -0.11032        2.95081       -0.05677
C          0.77518        4.19622       -0.01075
C          2.31184        3.94457        0.01244
C          2.71652        3.19975       -1.19539
C          3.03530        5.31257        0.02094
C          2.72338        3.14294        1.26962
C          3.05444        2.59309       -2.18902
H         -1.16817        3.23908       -0.13579
H          0.13477        2.32263       -0.92495
H         -0.00478        2.33453        0.84748
H          0.52865        4.79424        0.88187
H          0.55176        4.82993       -0.88282
H          4.12525        5.17942        0.02441
H          2.75125        5.87986        0.91982
H          2.76466        5.90399       -0.86402
H          2.40078        3.67631        2.17661
H          2.27581        2.14155        1.27774
H          3.81431        3.02266        1.30974
H          3.35615        2.05764       -3.06726
