24
3,3-DIMETHYL-2-ETHYL-1-BUTENE.gamout	Energy:    -314.0350550
C          0.27641       36.46898       -1.17090
C          1.31449       36.07710       -0.10548
C          1.98367       37.26997        0.56825
C          3.41493       37.63440        0.13617
C          1.30734       37.94328        1.51081
C          4.37232       36.50187        0.58312
C          3.48907       37.78551       -1.40095
C          3.89721       38.95049        0.77051
H         -0.18261       35.57338       -1.61558
H         -0.52243       37.07849       -0.72622
H          0.73160       37.05545       -1.98037
H          2.06592       35.41967       -0.56418
H          0.81553       35.47098        0.66563
H          1.70363       38.81988        2.01955
H          0.30540       37.62748        1.80923
H          5.40364       36.73380        0.27695
H          4.35712       36.38754        1.67605
H          4.10614       35.53436        0.13680
H          4.51781       38.02879       -1.70420
H          2.83306       38.59550       -1.74961
H          3.20365       36.86341       -1.92428
H          3.92803       38.88757        1.86699
H          4.91460       39.18268        0.42582
H          3.24901       39.79374        0.49353
