21
3,4-DIMETHYL-TRANS-2-PENTENE.gamout	Energy:    -274.7823222
C          4.49901        2.53990        1.99754
C          3.15777        1.87294        1.68849
C          2.08336        2.57695        1.28850
C          3.15975        0.37364        1.86986
C          4.41379        4.02389        2.37476
C          5.49691        2.33807        0.83790
C          0.71513        2.07082        0.92783
H          4.91269        2.00828        2.87397
H          2.19137        3.66182        1.20820
H          3.33657        0.11825        2.92850
H          2.22210       -0.10058        1.56160
H          3.97466       -0.09704        1.29708
H          5.39648        4.38732        2.70730
H          3.69348        4.19090        3.18776
H          4.11172        4.64626        1.51903
H          5.14844        2.86681       -0.06216
H          6.48840        2.73448        1.10484
H          5.62134        1.27796        0.57824
H          0.45198        2.36009       -0.10347
H          0.61894        0.98140        1.00378
H         -0.05233        2.52106        1.57983
