24
3,4-DIMETHYL-1-HEXENE.gamout	Energy:    -314.0327741
C          3.46493        3.75129        2.58549
C          2.78199        2.44913        2.05761
C          1.42057        2.21093        2.74206
C          2.67360        2.39341        0.52560
C          4.84533        3.94133        2.00682
C          2.62138        5.02445        2.37819
C          0.91184        0.76903        2.64899
C          5.99134        3.84685        2.68859
H          3.58876        3.60696        3.67210
H          3.44714        1.62568        2.37138
H          0.66723        2.89154        2.31336
H          1.50613        2.48332        3.80706
H          2.16968        1.47420        0.19885
H          3.66310        2.40477        0.05000
H          2.09562        3.24201        0.13024
H          4.89305        4.19591        0.94199
H          2.43171        5.21639        1.31210
H          3.14875        5.89939        2.78234
H          1.65130        4.95328        2.88783
H          1.61307        0.07209        3.13289
H         -0.06248        0.66254        3.14746
H          0.78306        0.44373        1.60691
H          6.00444        3.60705        3.75536
H          6.95609        4.00647        2.20412
