24
3,4-DIMETHYL-TRANS-3-HEXENE.gamout	Energy:    -314.0405098
C          5.62335        2.04120        1.99488
C          6.51482        1.81522        0.76109
C          4.26873        2.64389        1.65761
C          3.17123        1.90166        1.38417
C          4.28193        4.15588        1.64255
C          1.81664        2.50431        1.04681
C          3.15808        0.38967        1.39922
C          0.92490        2.72995        2.28046
H          5.51269        1.09166        2.53578
H          6.14689        2.72067        2.68761
H          7.50780        1.44215        1.05435
H          6.06116        1.08195        0.07859
H          6.66010        2.74836        0.19666
H          5.11041        4.53269        1.02012
H          4.45736        4.54780        2.65918
H          3.35587        4.60620        1.27135
H          1.29326        1.82495        0.35384
H          1.92728        3.45395        0.50608
H          4.08363       -0.06059        1.77178
H          2.98414       -0.00229        0.38234
H          2.32872        0.01284        2.02045
H          1.37847        3.46298        2.96329
H         -0.06797        3.10324        1.98711
H          0.77944        1.79667        2.84461
