24
3,4-DIMETHYL-CIS-3-HEXENE.gamout	Energy:    -314.0407026
C          4.40626        3.22602        1.12551
C          5.40670        3.36144        2.28644
C          3.10621        3.98241        1.35086
C          1.99892        3.39202        1.85526
C          3.19366        5.44146        0.96697
C          1.95612        1.92020        2.23808
C          0.68501        4.10090        2.08983
C          1.38998        1.01332        1.13179
H          4.88004        3.61135        0.20692
H          4.21585        2.16188        0.93546
H          5.00114        2.92101        3.20877
H          6.35359        2.85228        2.05185
H          5.63792        4.41589        2.49674
H          3.28899        5.54948       -0.12744
H          2.33596        6.03944        1.29080
H          4.09607        5.90183        1.40095
H          1.32714        1.81276        3.13779
H          2.95036        1.55721        2.52904
H          0.48283        4.19372        3.17114
H          0.63031        5.10255        1.65138
H         -0.14914        3.51501        1.67083
H          1.31979       -0.02987        1.47467
H          0.38291        1.33312        0.82643
H          2.03039        1.03738        0.23818
