14
3-AMINO-1-PROPANOL.gamout	Energy:    -249.3878053
N         -4.91389        0.42348        0.36652
C         -3.75859        1.25993        0.04549
H         -5.79036        0.91044        0.20201
H         -4.92813       -0.42399       -0.19623
C         -2.45476        0.53432        0.37626
H         -3.83011        2.17630        0.65399
H         -3.73532        1.59033       -1.01339
C         -1.21807        1.37973        0.10807
H         -2.37929       -0.38961       -0.22130
H         -2.46599        0.22765        1.43261
O         -0.06838        0.61015        0.44085
H         -1.25771        2.30439        0.71355
H         -1.18851        1.68037       -0.95610
H          0.72891        1.12938        0.29396
