24
3-ETHYL-TRANS-2-HEXENE.gamout	Energy:    -314.0414635
C          0.76071        0.73310       -2.11293
C          2.20870        0.40167       -1.89403
C          3.24912        1.23799       -1.72605
C          4.64400        0.67376       -1.49708
C          4.93486        0.17742       -0.05983
C          6.33484       -0.44602        0.01181
C          4.76424        1.27567        0.99679
C          3.14790        2.74254       -1.76643
H          0.13248        0.27914       -1.32812
H          0.40443        0.32083       -3.07198
H          0.55985        1.81131       -2.11813
H          2.43169       -0.67213       -1.87288
H          5.39703        1.43552       -1.76184
H          4.80803       -0.17111       -2.18462
H          4.19882       -0.61455        0.16212
H          7.11104        0.30573       -0.20383
H          6.44593       -1.26190       -0.71792
H          6.53711       -0.85635        1.01206
H          5.45568        2.11288        0.80852
H          4.97921        0.88626        2.00256
H          3.74013        1.67296        1.00659
H          3.58282        3.19304       -0.86059
H          2.11917        3.10725       -1.86557
H          3.72919        3.13869       -2.61655
