21
3-HEXANOL.gamout	Energy:    -311.8857219
C          3.09117        0.32233        0.26391
C          1.73296        0.77146       -0.27710
C          0.55449       -0.08256        0.20741
C         -0.80044        0.49104       -0.22313
C         -2.00880       -0.23583        0.37474
C         -3.34919        0.35750       -0.06634
O          0.69897       -1.44741       -0.19436
H          3.10943        0.36909        1.36350
H          3.31116       -0.71320       -0.02969
H          3.89837        0.96593       -0.11385
H          1.54384        1.81944        0.00741
H          1.74440        0.75498       -1.38202
H          0.58278       -0.13132        1.30868
H         -0.83473        1.55688        0.05944
H         -0.85980        0.46734       -1.32714
H         -1.96248       -1.30033        0.10000
H         -1.93499       -0.20278        1.47480
H         -3.43316        1.41488        0.22936
H         -3.46358        0.30784       -1.16040
H         -4.19287       -0.18539        0.38334
H          0.68667       -1.49673       -1.15845
