21
3-METHYL-2-ETHYL-1-BUTENE.gamout	Energy:    -274.7798944
C          1.95790        1.35785        2.24227
C          3.34547        1.71135        1.71019
C          4.47664        1.42649        2.67848
C          3.54576        2.23792        0.49411
C          1.42342        2.47488        3.16212
C          0.93026        1.01856        1.15535
C          5.88165        1.85398        2.26098
H          2.08180        0.45499        2.86729
H          4.23008        1.89167        3.64884
H          4.47137        0.34002        2.88204
H          4.54000        2.51003        0.14093
H          2.72491        2.42158       -0.19895
H          0.46852        2.17708        3.62146
H          1.25221        3.39521        2.58368
H          2.12331        2.71389        3.97487
H         -0.00530        0.66628        1.61287
H          1.30392        0.23212        0.48537
H          0.68219        1.89842        0.54334
H          5.93735        2.93971        2.09401
H          6.19971        1.35361        1.33459
H          6.60791        1.59627        3.04426
