26
3-METHYL-3-ETHYLPENTANE.gamout	Energy:    -315.2574146
C          3.93203        2.05127        1.08723
C          3.30803        3.00554        2.14343
C          3.90349        4.42754        1.94806
C          1.77167        3.06877        1.91798
C          3.61281        2.49256        3.56642
C          3.41612        0.60764        1.05599
C          5.42698        4.57068        2.04645
C          0.97128        4.02478        2.81049
H          3.78754        2.50094        0.09039
H          5.01961        2.01792        1.24831
H          3.57604        4.80388        0.96399
H          3.45279        5.09920        2.69342
H          1.35974        2.05758        2.05006
H          1.59010        3.33419        0.86264
H          3.08460        1.55167        3.77327
H          3.30367        3.21917        4.33047
H          4.68660        2.30566        3.70601
H          3.96921        0.02639        0.30434
H          2.35122        0.54973        0.79237
H          3.55297        0.10400        2.02332
H          5.95212        4.01397        1.25821
H          5.80971        4.22301        3.01640
H          5.71184        5.62746        1.94262
H          1.10664        3.80045        3.87816
H         -0.10237        3.93322        2.59220
H          1.24687        5.07612        2.64971
