21
3-METHYL-2-PENTANOL.gamout	Energy:    -311.8832938
C          0.31974        1.31018       -0.97881
C          0.28332        0.37257        0.23736
C         -1.07810       -0.34834        0.39493
C         -2.24395        0.58210        0.72867
O         -1.38358       -1.16969       -0.73480
C          1.43410       -0.65339        0.21872
C          2.83850       -0.05100        0.30976
H          1.27072        1.85583       -1.02879
H          0.22241        0.74508       -1.91901
H         -0.47857        2.06475       -0.94470
H          0.40707        0.99384        1.14330
H         -0.96926       -1.07050        1.21848
H         -2.45056        1.28339       -0.09409
H         -3.15374       -0.00639        0.90708
H         -2.02903        1.17420        1.63046
H         -1.62939       -0.61099       -1.48134
H          1.28893       -1.34486        1.06458
H          1.34683       -1.26821       -0.69071
H          3.07634        0.57810       -0.56022
H          2.94748        0.57183        1.21147
H          3.60048       -0.84204        0.35590
