24
3-METHYL-3-ETHYL-1-PENTENE.gamout	Energy:    -314.0302941
C          0.96200        4.44997        0.42722
C          1.56377        3.14927        0.96913
C          2.77714        3.27929        1.94152
C          3.86313        4.11221        1.27565
C          3.31079        1.86596        2.28724
C          2.34662        4.01741        3.23066
C          5.07389        3.72485        0.86191
C          2.35214        0.92394        3.02319
H          0.61406        5.10995        1.23478
H          1.67900        5.01207       -0.18660
H          0.09311        4.22625       -0.20772
H          1.87714        2.52078        0.12018
H          0.77003        2.59249        1.49004
H          3.59874        5.16479        1.13180
H          3.63060        1.37724        1.35336
H          4.22066        1.98529        2.89655
H          3.16501        4.03150        3.96500
H          2.07450        5.06110        3.02374
H          1.47613        3.53372        3.69502
H          5.75412        4.43940        0.39581
H          5.43981        2.70223        0.96293
H          1.44688        0.70942        2.43841
H          2.84763       -0.03807        3.21722
H          2.03747        1.32913        3.99496
