21
3-METHYLPENTANOL.gamout	Energy:    -311.8794642
O         -0.73960        0.90072        3.32833
C          0.67430        0.27977       -0.18806
C         -0.11504        0.03381        1.11292
C          0.82728       -1.00896       -1.02075
C          0.05030        1.39529       -1.04085
C         -0.16596        1.22775        2.06717
C          1.65242       -2.11935       -0.36519
H          1.69153        0.60541        0.09961
H         -1.14591       -0.27210        0.85504
H          0.32894       -0.80332        1.67058
H          1.29582       -0.73891       -1.98100
H         -0.17783       -1.38937       -1.27339
H          0.04578        2.36222       -0.52002
H          0.60906        1.53061       -1.97823
H         -0.99118        1.15013       -1.30449
H          0.85563        1.57025        2.28920
H         -0.70344        2.07748        1.61332
H          1.79765       -2.95941       -1.05934
H          1.16680       -2.52145        0.53518
H          2.64829       -1.75128       -0.07339
H         -1.67174        0.68461        3.21251
