19
3-METHYL-1-HEXYNE.gamout	Energy:    -273.5313928
C          0.52559        3.38611        1.09359
C          1.96915        3.41430        1.60085
C          2.72654        2.11273        1.33011
C          4.19433        2.10897        1.81832
C          4.99623        3.14824        1.15672
C          4.84223        0.72123        1.64993
C          5.65519        4.00391        0.60545
H          0.49226        3.22121        0.00560
H         -0.05200        2.57917        1.57091
H          0.01152        4.33480        1.30413
H          1.97573        3.61562        2.68558
H          2.50884        4.25103        1.13105
H          2.71209        1.88842        0.25064
H          2.20880        1.27703        1.83008
H          4.18399        2.34873        2.89718
H          4.85288        0.42551        0.59112
H          5.87796        0.71997        2.01436
H          4.27454       -0.03305        2.21422
H          6.23976        4.76051        0.12038
