14
3-METHYLPYRIDINE.gamout	Energy:    -287.2271919
C          2.93401        1.69700       -0.23701
C          3.09080        0.19937       -0.16025
C          4.33391       -0.42453       -0.34244
C          1.99680       -0.64123        0.09854
C          4.42663       -1.81304       -0.26064
N          2.07446       -1.97170        0.17909
C          3.26497       -2.54659        0.00325
H          3.54357        2.20168        0.52889
H          3.25674        2.08186       -1.21681
H          1.88843        1.99632       -0.08482
H          5.22343        0.17690       -0.54728
H          1.00314       -0.20532        0.24831
H          5.38175       -2.32291       -0.39862
H          3.29875       -3.63785        0.07445
