16
3-METHYL-1-PENTYNE.gamout	Energy:    -234.2726162
C          0.93231        3.34396        1.49983
C          1.79987        2.12056        1.79361
C          3.18151        2.13411        1.09716
C          3.93635        0.80753        1.31050
C          3.99789        3.27934        1.52465
C          4.66842        4.22163        1.88913
H          1.42191        4.26866        1.83679
H          0.73649        3.44055        0.42075
H         -0.03708        3.26629        2.01226
H          1.27519        1.20774        1.46805
H          1.95626        2.02004        2.87959
H          3.00320        2.25123        0.01264
H          4.90512        0.81774        0.79399
H          4.12090        0.63503        2.38045
H          3.34295       -0.03253        0.92082
H          5.26473        5.05371        2.20780
