24
3-METHYL-TRANS-2-HEPTENE.gamout	Energy:    -314.0430403
C          0.24301       18.88590       -0.66271
C          1.21485       19.80276        0.08391
C          0.94938       21.29292       -0.15328
C          1.93266       22.20851        0.59974
C          1.71182       23.69087        0.37360
C          2.61363       24.41947       -0.30973
C          0.44107       24.25156        0.96569
C          2.57387       25.88292       -0.64728
H          0.46125       17.82563       -0.46894
H         -0.79706       19.07564       -0.35464
H          0.30213       19.04718       -1.75032
H          2.24879       19.56591       -0.21898
H          1.15923       19.59488        1.16588
H         -0.08553       21.52303        0.14845
H          1.01212       21.51214       -1.23243
H          2.95921       21.94304        0.30271
H          1.85423       21.99141        1.68083
H          3.50087       23.89159       -0.67851
H          0.38314       24.01843        2.04219
H          0.35891       25.33822        0.85297
H         -0.45036       23.80088        0.49972
H          1.68448       26.39337       -0.25791
H          3.46143       26.40121       -0.24723
H          2.59267       26.03300       -1.74001
