20
3-METHYLPENTANE.gamout	Energy:    -236.7454979
C          2.10982        2.60137        1.47579
C          2.08343        2.04263        2.91242
C          3.51104        2.01499        3.49535
C          1.40275        0.66887        2.98854
C          0.73695        2.82694        0.83730
C          3.60431        1.61668        4.97041
H          2.65904        3.55693        1.48814
H          2.70418        1.92048        0.84176
H          1.49302        2.74747        3.52787
H          4.12920        1.33118        2.88774
H          3.95349        3.01606        3.36687
H          1.95671       -0.07334        2.39069
H          0.37258        0.70250        2.60954
H          1.35478        0.29867        4.02122
H          0.09810        3.45120        1.48151
H          0.83355        3.33845       -0.13103
H          0.20698        1.88115        0.65667
H          2.94097        2.23968        5.59074
H          3.32376        0.56636        5.13264
H          4.62876        1.74354        5.34913
