18
3-METHYL-TRANS-2-PENTENE.gamout	Energy:    -235.5252820
C          3.87094        3.06907        2.15916
C          2.42460        2.64176        1.99787
C          1.95064        1.57912        2.67424
C          1.60131        3.48542        1.05451
C          4.72926        2.89701        0.89423
C          0.56785        0.99243        2.65028
H          3.90183        4.13086        2.46323
H          4.32685        2.49666        2.98082
H          2.65389        1.05900        3.33507
H          0.54390        3.19901        1.03515
H          1.98193        3.41993        0.02223
H          1.65759        4.54893        1.34193
H          4.35588        3.50794        0.05968
H          4.73506        1.84660        0.56730
H          5.76884        3.20090        1.08658
H          0.59426       -0.05793        2.31450
H          0.12890        0.98438        3.66212
H         -0.12082        1.53412        1.99054
