19
3-METHYLCYCLOHEXENE.gamout	Energy:    -273.5861356
C          0.59618        2.45090        1.26315
C          2.01200        2.54881        1.84958
C          2.88023        3.56858        1.09247
C          2.69071        1.19526        1.89735
C          4.34975        3.48968        1.52007
C          3.98231        0.99252        1.60443
C          4.93565        2.10006        1.22913
H          0.62567        2.07270        0.22966
H         -0.03310        1.76982        1.85487
H          0.10801        3.43706        1.25117
H          1.90446        2.90503        2.89286
H          2.80612        3.36686        0.00966
H          2.48159        4.58305        1.24984
H          2.06782        0.34151        2.18218
H          4.94351        4.26504        1.01299
H          4.42076        3.69673        2.60092
H          4.38368       -0.02454        1.63994
H          5.19468        2.01099        0.15777
H          5.88792        1.96451        1.76831
