15
3-METHYL-1-BUTENE.gamout	Energy:    -196.2602321
C          3.40760        2.73400        1.26510
C          2.13488        2.02435        1.66683
C          2.10684        0.53665        1.30666
C          0.90794        2.76618        1.10326
C          4.48559        2.20415        0.67817
H          3.42076        3.80693        1.49173
H          2.07396        2.10392        2.76963
H          1.16840        0.07671        1.64662
H          2.17483        0.39098        0.21743
H          2.93810       -0.00858        1.77567
H          0.90291        2.73157        0.00304
H         -0.02481        2.30740        1.46371
H          0.90527        3.82319        1.40809
H          5.34974        2.82408        0.43478
H          4.55214        1.14619        0.41851
