16
3-METHYL-CIS-1,3-PENTADIENE.gamout	Energy:    -234.2993664
C          1.28619        2.55145        1.09015
C          2.61702        1.91967        1.22573
C          3.76519        2.59352        1.44877
C          2.60491        0.40851        1.14381
C          0.97433        3.62840        0.35419
C          3.96141        4.06823        1.64563
H          0.47101        2.03626        1.61406
H          4.67584        1.99025        1.53320
H          3.60831       -0.01271        1.29081
H          2.22475        0.06680        0.16720
H          1.93663       -0.01913        1.91008
H          1.72078        4.15565       -0.24246
H         -0.05111        3.99893        0.30505
H          4.63189        4.25076        2.50039
H          3.01658        4.59661        1.82353
H          4.44405        4.53136        0.76762
