22
3-OCTYNE.gamout	Energy:    -312.7994073
C          3.39542        3.11720        1.44370
C          4.74192        3.68977        1.37667
C          5.87018        2.65271        1.53989
C          2.28506        2.63024        1.50348
C          7.26496        3.27930        1.46145
C          0.94890        2.03067        1.56351
C          8.39769        2.26323        1.61996
C          0.86621        0.63208        0.92815
H          4.84612        4.46403        2.15636
H          4.86760        4.21315        0.41295
H          5.76271        1.88056        0.76093
H          5.74504        2.13721        2.50593
H          7.35752        4.05542        2.24036
H          7.37355        3.80123        0.49534
H          0.62611        1.97418        2.61676
H          0.23073        2.70256        1.06413
H          8.33694        1.74905        2.59170
H          8.35563        1.49331        0.83396
H          9.38195        2.74973        1.55946
H          1.54626       -0.06762        1.43421
H          1.14634        0.66746       -0.13418
H         -0.15745        0.23720        1.00411
