22
3-PHENYL-1-PROPANOL.gamout	Energy:    -424.8541745
C         -0.94844        1.16839       -0.27897
C          0.44440        1.04509       -0.31272
C         -1.75198        0.02989       -0.17995
C         -1.15085       -1.23164       -0.10927
C          0.24000       -1.34987       -0.14267
C          1.06067       -0.21388       -0.25088
H         -1.40632        2.15846       -0.32806
H         -2.83905        0.12310       -0.15418
H         -1.76926       -2.12721       -0.02020
H          0.69671       -2.34037       -0.07886
H          1.06358        1.94232       -0.38276
C          2.56761       -0.35174       -0.30840
C          3.07865       -0.96693       -1.62385
H          2.90971       -0.97556        0.53463
H          3.02660        0.63916       -0.16919
C          4.59957       -1.10286       -1.65303
H          2.74701       -0.33907       -2.46897
H          2.62878       -1.96009       -1.77465
O          5.08693       -1.73548       -2.82772
H          4.93533       -1.73489       -0.81755
H          5.07106       -0.11095       -1.51848
H          4.81826       -1.22923       -3.60299
