20
3-PHENYLPROPIONATE-1.gamout	Energy:    -498.2737470
O          3.91693       -0.04214       -1.13527
O          3.46908        0.03488        1.08249
C          0.69329        0.05832        0.74271
C         -0.76887        0.03116        0.37425
C          1.63101       -0.01341       -0.47582
C         -1.48602        1.21466        0.12892
C         -1.46179       -1.18412        0.23785
C         -2.83167        1.18835       -0.24248
C         -2.80616       -1.21997       -0.13541
C         -3.50029       -0.03112       -0.37585
C          3.16248       -0.00482       -0.13367
H          0.93024        0.97226        1.30766
H          0.93269       -0.77913        1.41480
H          1.43582        0.83065       -1.15811
H          1.42614       -0.92433       -1.06245
H         -0.97357        2.17193        0.23637
H         -0.92939       -2.11690        0.43066
H         -3.36724        2.12376       -0.42352
H         -3.32041       -2.17898       -0.23729
H         -4.55146       -0.05575       -0.66205
