21
4,4-DIMETHYL-CIS-2-PENTENE.gamout	Energy:    -274.7760130
C          3.21889        1.90772        2.48879
C          1.73432        2.06834        2.14205
C          4.19467        2.82466        2.57482
C          1.08045        0.67093        2.19353
C          1.01889        2.97518        3.16900
C          1.55291        2.63713        0.71656
C          4.14641        4.31095        2.35945
H          3.52463        0.87799        2.70012
H          5.18606        2.44400        2.84456
H          1.18047        0.22792        3.19541
H          0.00875        0.72777        1.95439
H          1.55116       -0.01298        1.47159
H          1.41792        3.99712        3.16516
H         -0.05732        3.03393        2.94311
H          1.13127        2.57622        4.18720
H          1.97441        3.64497        0.61761
H          0.48308        2.69360        0.46196
H          2.04610        1.99321       -0.02544
H          4.47104        4.84148        3.27007
H          4.84691        4.60752        1.56115
H          3.15374        4.68466        2.09029
