19
4,4-DIMETHYL-1-PENTYNE.gamout	Energy:    -273.5332931
C          0.00110       19.99745        0.03423
C          1.53876       19.94386        0.00904
C          2.06428       21.41197       -0.01679
C          2.05144       19.22487        1.26907
C          2.01009       19.19650       -1.25072
C          3.51962       21.56016       -0.04173
C          4.72478       21.68699       -0.06097
H         -0.42058       18.98232        0.05258
H         -0.39648       20.50996       -0.85478
H         -0.36620       20.52955        0.92469
H          1.64321       21.92416       -0.89813
H          1.67182       21.94620        0.86473
H          3.14928       19.19102        1.29009
H          1.67715       18.19120        1.30259
H          1.71196       19.73544        2.18286
H          1.63710       19.68405       -2.16403
H          3.10665       19.16558       -1.30862
H          1.63913       18.16111       -1.24731
H          5.79006       21.80566       -0.07847
