24
4,5-DIMETHYL-1-HEXENE.gamout	Energy:    -314.0325719
C          4.06244        3.65199        2.22096
C          2.54773        3.42255        1.98425
C          2.06905        2.08398        2.61387
C          1.73457        4.62243        2.49630
C          4.66356        4.79367        1.44674
C          0.55007        1.88746        2.48217
C          2.79172        0.86095        2.02480
C          5.71218        4.69345        0.62306
H          4.21144        3.83107        3.30244
H          4.62544        2.74248        1.97638
H          2.39062        3.34443        0.89284
H          2.30647        2.13289        3.69298
H          0.68483        4.57130        2.18184
H          2.13503        5.57127        2.11780
H          1.75783        4.66706        3.59706
H          4.21157        5.78096        1.58528
H          0.23895        1.92354        1.42557
H         -0.02072        2.64857        3.02880
H          0.25281        0.90677        2.88030
H          3.86784        0.85562        2.23855
H          2.66404        0.82363        0.93088
H          2.37414       -0.06825        2.43820
H          6.21302        3.73754        0.44718
H          6.10783        5.56383        0.09719
