26
4-(MMIM)PHO.gamout	Energy:    -610.3139561
N          1.11786       -0.41011       -0.14974
N         -1.06058       -0.52731        0.05503
C          0.06651       -1.29932       -0.12084
C          0.64254        0.88096        0.01510
C         -0.70412        0.80959        0.12989
C          2.49688       -0.70709       -0.50268
C         -2.40574       -1.00267        0.33603
H          1.30642        1.73573        0.02490
H         -1.44242        1.58866        0.26736
H          2.51951       -1.54688       -1.20650
H          2.92950        0.17861       -0.98114
H          3.09963       -0.96487        0.37908
H         -2.90985       -0.26322        0.96877
H         -2.99192       -1.13954       -0.58355
H         -2.35191       -1.95956        0.86720
C          0.13046       -2.71170       -0.24466
C          1.24457       -3.46434        0.25545
C          1.30265       -4.82747        0.15994
C          0.24668       -5.61269       -0.47253
C         -0.87052       -4.82455       -0.98514
C         -0.92164       -3.46293       -0.86607
H          2.04842       -2.94879        0.78209
H          2.14809       -5.38025        0.57264
H         -1.76652       -2.93714       -1.31240
H         -1.67054       -5.37187       -1.48647
O          0.29462       -6.85132       -0.56703
