13
4-BROMOPHENOL.gamout	Energy:   -2880.2199701
Br        -3.27067        0.00014       -0.02522
O          2.79688       -0.07679        0.03939
C          1.43527       -0.01219        0.02490
C          0.72926       -1.22193        0.01800
C          0.73490        1.20080        0.01703
C         -0.66544       -1.21856        0.00325
C         -0.66254        1.20736        0.00225
C         -1.35641       -0.00337       -0.00460
H          1.28397       -2.16070        0.02421
H          1.27910        2.14869        0.02235
H         -1.21018       -2.16244       -0.00212
H         -1.20160        2.15443       -0.00388
H          3.18481        0.80578        0.04317
