15
4-CHLOROTOLUENE.gamout	Energy:    -730.6163734
Cl        -2.07239       -0.74231       -0.23253
C          2.42330        0.07553       -0.09856
C          1.92639       -1.23494       -0.19875
C          1.49466        1.12405       -0.04121
C          3.91029        0.33440       -0.05519
C          0.55626       -1.49571       -0.24050
C          0.11757        0.88471       -0.08153
C         -0.34257       -0.42770       -0.18121
H          2.62490       -2.07371       -0.24552
H          1.84879        2.15416        0.03717
H          4.37658       -0.16827        0.80640
H          4.12717        1.40760        0.02340
H          4.40705       -0.04457       -0.96184
H          0.18714       -2.51824       -0.31864
H         -0.59086        1.71163       -0.03579
