31
4-DECANONE.gamout	Energy:    -467.7231893
C          0.88047        0.14212        0.32051
C          2.40477        0.07810        0.20317
C          2.89183       -0.61603       -1.07280
C          4.41706       -0.68382       -1.19332
C          4.89707       -1.38149       -2.46927
C          6.41836       -1.44410       -2.58015
C          6.94085       -2.13279       -3.83347
O          6.19300       -2.59545       -4.67096
C          8.45452       -2.21211       -3.97898
C          8.93984       -2.90713       -5.24966
C         10.46533       -2.96160       -5.35346
H          0.56950        0.64450        1.24783
H          0.44170       -0.86756        0.32135
H          0.44054        0.69395       -0.52457
H          2.81924       -0.44836        1.07973
H          2.82089        1.09922        0.23975
H          2.48067       -0.09150       -1.95280
H          2.47935       -1.63919       -1.11120
H          4.82709       -1.20805       -0.31201
H          4.82984        0.33971       -1.15500
H          4.49330       -0.86568       -3.35422
H          4.49103       -2.40385       -2.51337
H          6.85512       -1.96338       -1.70806
H          6.85605       -0.43026       -2.54745
H          8.85146       -2.71577       -3.07903
H          8.85153       -1.18261       -3.91883
H          8.51871       -2.38636       -6.12262
H          8.51998       -3.92356       -5.28322
H         10.90214       -1.95071       -5.35653
H         10.78090       -3.46521       -6.27813
H         10.90573       -3.51042       -4.50625
