24
4-ETHYL-M-XYLENE.gamout	Energy:    -388.9836818
C          6.67412        2.34020        2.84749
C          6.25266        2.49933        1.37602
C          4.75544        2.39487        1.16630
C          3.90097        3.51716        1.26626
C          4.18212        1.14529        0.89042
C          4.44832        4.90004        1.53521
C          2.52048        3.33785        1.09558
C          2.80560        0.98604        0.72653
C          1.94545        2.08735        0.83071
C          0.45081        1.92917        0.68469
H          6.21520        3.11095        3.48333
H          7.76659        2.41799        2.95395
H          6.36059        1.36100        3.23752
H          6.75023        1.72018        0.77821
H          6.62663        3.46113        0.99508
H          4.83400        0.27317        0.79720
H          5.14095        5.22163        0.74121
H          3.63891        5.63909        1.59015
H          5.00616        4.94308        2.48264
H          1.86766        4.21166        1.16870
H          2.39774       -0.00368        0.50911
H          0.20015        1.13939       -0.03788
H         -0.02357        2.86191        0.34906
H         -0.01419        1.65172        1.64537
