24
4-ETHYL-TRANS-2-HEXENE.gamout	Energy:    -314.0414810
C          0.86564        1.56763       -0.65878
C          1.60028        2.29413        0.19150
C          1.78568        3.79056        0.15559
C          3.26718        4.16844       -0.06875
C          3.84014        3.71987       -1.41400
C          1.25190        4.45255        1.44641
C          0.69071        0.07769       -0.61151
C         -0.25403        4.29653        1.66309
H          0.33898        2.08929       -1.46721
H          2.13040        1.77550        1.00262
H          1.20279        4.18745       -0.69519
H          3.86967        3.74206        0.75190
H          3.36245        5.26283        0.02089
H          4.89186        4.02428       -1.51480
H          3.27991        4.16685       -2.24994
H          3.78983        2.62783       -1.52771
H          1.79604        4.03293        2.31008
H          1.50635        5.52446        1.41772
H          1.24778       -0.36869        0.22432
H         -0.37193       -0.19398       -0.49974
H          1.03836       -0.39310       -1.54588
H         -0.57149        4.78590        2.59518
H         -0.82023        4.75167        0.83562
H         -0.54453        3.23796        1.71975
