22
4-HEPTANONE.gamout	Energy:    -349.9443330
C          2.00401        2.05928        1.89630
C          3.21310        1.16376        1.64486
C          4.43235        1.79662        0.98621
O          3.19660       -0.01949        1.92058
C          0.85348        1.39628        2.65796
C          5.09729        2.92474        1.79659
C          1.12944        1.21372        4.15290
C          6.35581        3.46791        1.11632
H          1.66600        2.40661        0.90327
H          2.34316        2.97230        2.41336
H          5.15254        0.98644        0.80627
H          4.12316        2.19306        0.00268
H          0.64330        0.41786        2.20187
H         -0.05152        2.00887        2.52356
H          4.38410        3.74870        1.95053
H          5.35400        2.54495        2.79872
H          0.27520        0.73817        4.65615
H          2.01124        0.57937        4.31759
H          1.30773        2.18363        4.64445
H          6.81688        4.26686        1.71424
H          6.12158        3.88215        0.12374
H          7.10612        2.67493        0.97877
