27
4-METHYL-3-HEPTANOL.gamout	Energy:    -390.4004680
C          1.87700        1.66432        4.20819
C          2.10369        2.37972        2.85422
C          3.51575        2.15685        2.28121
C          1.00763        1.98574        1.85183
C          2.79204        2.14330        5.33585
O          2.04297        0.24600        4.10267
C          3.89100        3.08925        1.12237
C          2.39280        1.60857        6.71251
C          5.31355        2.85791        0.60812
H          0.83492        1.87799        4.51506
H          1.98764        3.45829        3.06592
H          3.61225        1.10814        1.95692
H          4.26024        2.28909        3.08034
H          1.09850        0.92720        1.56118
H          1.06818        2.57725        0.92918
H          0.00413        2.14187        2.27610
H          3.82601        1.84258        5.11124
H          2.77683        3.24500        5.34530
H          1.28829       -0.14076        3.64774
H          3.78738        4.13678        1.45327
H          3.18233        2.96357        0.28889
H          3.07694        1.97648        7.49020
H          2.41656        0.51089        6.72834
H          1.37499        1.93013        6.98319
H          6.05392        3.00607        1.40958
H          5.56373        3.54758       -0.21085
H          5.43635        1.83087        0.23129
