16
4-METHYLCYCLOPENTENE.gamout	Energy:    -234.3194230
C          0.51397        2.92936        1.60019
C          1.96639        2.53431        1.86306
C          2.61934        1.68165        0.73968
C          3.58563        0.79161        1.48854
C          3.35111        0.80510        2.80712
C          2.18901        1.70604        3.15917
H         -0.12169        2.03612        1.49336
H          0.10732        3.53374        2.42499
H          0.42037        3.52009        0.67644
H          2.56631        3.45422        1.96107
H          1.86407        1.07144        0.20895
H          3.10634        2.30417       -0.02760
H          4.34799        0.18698        0.99350
H          3.89416        0.21294        3.54629
H          1.29518        1.10343        3.40885
H          2.38352        2.34534        4.03494
