20
4-METHYLQUINOLINE.gamout	Energy:    -440.6734792
C         -3.89958       -2.13743        1.70830
C         -5.34797       -1.85609        2.01022
C         -3.46788       -3.43226        1.26928
C         -2.93346       -1.15923        1.84339
C         -2.07034       -3.62377        1.00207
C         -4.35158       -4.53291        1.08590
C         -1.57641       -1.45223        1.55289
N         -1.15162       -2.62700        1.14993
C         -1.61432       -4.89806        0.56543
C         -3.87903       -5.75795        0.66089
C         -2.49845       -5.94272        0.39828
H         -5.48695       -0.81615        2.32943
H         -5.98190       -2.02919        1.12640
H         -5.72300       -2.51216        2.81140
H         -3.20463       -0.15490        2.17403
H         -5.41594       -4.40631        1.28413
H         -0.82158       -0.66636        1.66486
H         -0.54707       -5.00994        0.37119
H         -4.57156       -6.59073        0.52567
H         -2.13814       -6.91696        0.06254
