19
4-METHYLCYCLOHEXENE.gamout	Energy:    -273.5868667
C          0.50406        2.26636        1.63974
C          2.00970        2.11673        1.86972
C          2.77837        3.41604        1.57993
C          2.60213        0.95986        1.04583
C          4.26734        3.28790        1.92985
C          4.11109        0.94627        1.04801
C          4.85618        1.98374        1.45134
H          0.29085        2.53828        0.59339
H         -0.02963        1.32858        1.85553
H          0.07831        3.05082        2.28300
H          2.16826        1.87383        2.93627
H          2.67582        3.65786        0.50788
H          2.32789        4.25476        2.13316
H          2.22116       -0.00239        1.42749
H          2.23848        1.01906        0.00210
H          4.83499        4.12953        1.49990
H          4.41105        3.37261        3.02313
H          4.60407        0.03330        0.70189
H          5.94649        1.89731        1.44449
