19
4-METHYL-2-HEXYNE.gamout	Energy:    -273.5403294
C          4.53743        2.74044        1.22093
C          3.27551        1.99476        1.10490
C          2.11176        2.78104        1.75815
C          3.42701        0.56717        1.66905
C          5.57739        3.35667        1.33189
C          0.72598        2.18516        1.50160
C          6.83291        4.09428        1.45693
H          3.04277        1.90441        0.02779
H          2.14104        3.81368        1.37957
H          2.29949        2.84739        2.84230
H          2.51613       -0.02358        1.50064
H          4.26301        0.04647        1.18360
H          3.62625        0.59885        2.75037
H         -0.05654        2.82781        1.92974
H          0.61356        1.18886        1.95225
H          0.52637        2.09095        0.42247
H          7.53748        3.57172        2.12250
H          6.66444        5.10016        1.87201
H          7.32339        4.21419        0.47837
