24
4-METHYL-3-ETHYL-1-PENTENE.gamout	Energy:    -314.0305912
C          2.31653        5.48804        1.38466
C          2.13097        3.97661        1.59409
C          3.19772        3.37750        2.54607
C          0.70932        3.70513        2.11418
C          3.17827        1.86611        2.65908
C          4.65570        3.83264        2.25182
C          2.68414        0.97449        1.79454
C          5.19517        3.45928        0.86872
H          2.32255        6.02222        2.34845
H          1.48757        5.89452        0.78812
H          3.24845        5.73249        0.85938
H          2.23519        3.49171        0.60954
H          2.96760        3.76661        3.55561
H          0.51127        2.63582        2.25368
H         -0.04248        4.10277        1.41709
H          0.55844        4.20455        3.08459
H          3.69035        1.48023        3.54849
H          4.72407        4.92081        2.39596
H          5.30770        3.39111        3.02246
H          2.16590        1.26520        0.87846
H          2.77908       -0.09719        1.97684
H          6.24870        3.75909        0.77354
H          4.63697        3.95605        0.06178
H          5.13553        2.37558        0.69614
