21
4-METHYL-1-HEXENE.gamout	Energy:    -274.7726179
C          2.75759        1.78335        3.23802
C          4.22822        2.06308        2.83122
C          4.41778        3.32588        1.95908
C          4.92542        0.82402        2.25202
C          1.80259        1.35729        2.15618
C          4.03287        3.22342        0.47839
C          0.59152        1.88294        1.94398
H          2.78576        0.97906        3.99603
H          2.35296        2.67122        3.74991
H          4.73571        2.28958        3.78467
H          5.47914        3.61849        2.02182
H          3.85333        4.15233        2.42156
H          5.98922        1.02837        2.05919
H          4.87051       -0.02047        2.95499
H          4.47747        0.49444        1.30395
H          2.12341        0.52247        1.52417
H          4.61791        2.45126       -0.04194
H          2.96905        2.98871        0.34589
H          4.23120        4.17837       -0.03016
H         -0.06675        1.50278        1.16110
H          0.21512        2.71316        2.54773
