16
4-METHYL-1-PENTYNE.gamout	Energy:    -234.2735885
C          3.62656        0.94917        1.14317
C          4.35191        2.10575        1.87538
C          2.17820        0.91160        1.34955
C          3.86116        3.47605        1.39552
C          5.86905        1.96092        1.70951
C          0.97972        0.88478        1.52907
H          3.83338        1.02279        0.06098
H          4.05383       -0.01304        1.47083
H          4.11250        2.01150        2.94762
H          4.35019        4.28525        1.95697
H          4.09119        3.62202        0.32783
H          2.77517        3.57994        1.52388
H          6.15686        2.03075        0.64838
H          6.40029        2.75617        2.25146
H          6.22795        0.99430        2.09328
H         -0.08051        0.85555        1.68410
