18
4-METHYL-1-PENTENE.gamout	Energy:    -235.5199942
C          3.09772        1.46620        1.22854
C          4.36973        1.88345        2.00219
C          1.82392        2.04581        1.77680
C          4.62158        3.39402        1.92158
C          5.58709        1.08914        1.51367
C          0.93624        2.77332        1.09134
H          3.02536        0.36457        1.26421
H          3.20729        1.73916        0.16556
H          4.20494        1.62353        3.06352
H          1.62157        1.83231        2.83373
H          5.50394        3.67764        2.51383
H          4.80467        3.70182        0.87945
H          3.76231        3.96899        2.29346
H          6.48784        1.35105        2.08785
H          5.42646        0.00527        1.61342
H          5.79490        1.30199        0.45274
H          0.02554        3.15069        1.55964
H          1.08892        3.01430        0.03604
