23
4-PHENYLBUTYRATE-1.gamout	Energy:    -537.5333715
O         -2.79482       -1.45093        0.03624
O         -4.51952       -0.06171        0.50253
C         -0.34100        0.53497        0.45855
C         -1.13449        0.63660       -0.85911
C          1.12373        0.23229        0.26755
C         -2.62857        0.85745       -0.62413
C          1.55059       -1.08691        0.03806
C          2.09850        1.24162        0.29882
C          2.89982       -1.38415       -0.15740
C          3.45148        0.95122        0.10390
C         -3.38698       -0.34091        0.04395
C          3.85713       -0.36511       -0.12511
H         -0.45466        1.47715        1.02140
H         -0.80961       -0.26398        1.05193
H         -1.00222       -0.30057       -1.42062
H         -0.71311        1.45303       -1.47391
H         -3.12967        1.05015       -1.58833
H         -2.80367        1.75678       -0.00996
H          0.80312       -1.88121        0.02087
H          1.78755        2.27132        0.48531
H          3.21375       -2.41695       -0.32834
H          4.19696        1.75080        0.13666
H          4.91069       -0.59666       -0.27596
