20
4-VINYLCYCLOHEXENE.gamout	Energy:    -311.6160684
C          1.01523        2.42188        1.40230
C          1.90612        2.12172        2.35266
C          3.40928        2.21438        2.26421
C          3.95679        2.76906        0.94297
C          4.05590        0.84429        2.57646
C          5.47844        2.96365        1.00886
C          5.54491        0.83797        2.33475
C          6.18305        1.78947        1.64115
H         -0.05480        2.30347        1.57902
H          1.30991        2.79658        0.42019
H          1.53074        1.74915        3.31339
H          3.73478        2.90105        3.06973
H          3.71144        2.06798        0.12802
H          3.46933        3.72366        0.69619
H          3.84860        0.56804        3.62381
H          3.57618        0.05782        1.96564
H          5.88187        3.13643       -0.00224
H          5.71860        3.88154        1.57658
H          6.11484        0.00353        2.75336
H          7.26852        1.72958        1.52150
