24
5,5-DIMETHYL-CIS-2-HEXENE.gamout	Energy:    -314.0403004
C          3.15363        2.63954        2.96787
C          2.09948        1.95932        2.04164
C          4.47516        1.93117        3.09172
C          1.78487        0.53332        2.53227
C          0.81274        2.80313        2.08803
C          2.62320        1.90476        0.59525
C          5.68020        2.35435        2.67883
C          6.02409        3.63720        1.97850
H          2.70733        2.71959        3.97480
H          3.30305        3.67075        2.61731
H          4.44219        0.95951        3.59393
H          0.98902        0.08087        1.92237
H          2.66414       -0.12199        2.46678
H          1.44225        0.53948        3.57814
H          0.40846        2.85781        3.11023
H          0.99977        3.83169        1.74450
H          0.03466        2.37010        1.44216
H          1.88583        1.43074       -0.06940
H          2.82324        2.91530        0.20845
H          3.55768        1.33046        0.53076
H          6.53074        1.69281        2.87650
H          6.49871        3.43328        1.00429
H          5.15212        4.27771        1.79772
H          6.75543        4.21701        2.56586
