18
5-AMINOLEVULINIC_ACID.gamout	Energy:    -475.8210805
O         -2.11468       -0.30937       -0.58796
O          2.88592        0.46822       -0.08930
O          2.46335       -1.48807        0.92325
N         -4.21241       -1.62095        0.77907
C         -0.36163       -1.05205        0.87491
C          0.60705       -0.14742        0.12350
C         -1.80304       -0.92362        0.41158
C         -2.85512       -1.62555        1.27650
C          2.05548       -0.48753        0.38183
H         -0.31405       -0.87628        1.96176
H         -0.06316       -2.10708        0.75327
H          0.44268        0.91376        0.35982
H          0.43453       -0.22512       -0.96200
H         -2.52270       -2.66323        1.44938
H         -2.82216       -1.15054        2.27358
H         -4.27515       -2.11761       -0.10678
H         -4.52143       -0.67067        0.58691
H          3.79736        0.18234        0.08166
