12
5-FLUOROURACIL.gamout	Energy:    -513.4613506
F         -2.45504       -0.86475       -0.00008
O         -1.56135        1.78885        0.00032
O          2.79416        0.35676        0.00012
N          0.60451        1.04589        0.00019
N          1.12765       -1.21294       -0.00010
C         -0.78718        0.85485        0.00019
C          1.60984        0.08918        0.00009
C         -1.15315       -0.56638       -0.00001
C         -0.21330       -1.53471       -0.00012
H          0.91912        2.01142        0.00030
H          1.83371       -1.93723       -0.00018
H         -0.47489       -2.59190       -0.00030
