19
5-METHYL-1-HEXYNE.gamout	Energy:    -273.5311666
C          3.45639        2.46552        1.78781
C          2.07211        2.05850        1.25162
C          4.62982        1.65370        1.20314
C          1.69653        0.61783        1.62669
C          1.00200        3.04449        1.73909
C          5.93893        2.11414        1.66793
C          7.01609        2.50582        2.06183
H          3.63196        3.52976        1.56813
H          3.46725        2.37108        2.88628
H          2.10913        2.12324        0.14889
H          4.52108        0.58794        1.45888
H          4.60068        1.70935        0.10129
H          1.68114        0.49306        2.72123
H          0.69651        0.36121        1.24786
H          2.40030       -0.11838        1.21427
H          0.01282        2.79051        1.33136
H          0.92469        3.02641        2.83782
H          1.23804        4.07514        1.43649
H          7.97203        2.84694        2.40636
