24
5-METHYL-TRANS-2-HEPTENE.gamout	Energy:    -314.0383634
C          1.00904       -0.03938        0.26133
C          2.47542        0.02619       -0.05090
C          3.20038       -0.95740       -0.59765
C          4.67767       -0.90840       -0.87133
C          5.13689       -1.28782       -2.29992
C          4.69038       -0.28554       -3.38630
C          3.23510       -0.40174       -3.85037
C          6.66457       -1.44599       -2.31679
H          0.45210        0.74776       -0.27394
H          0.82236        0.12111        1.33617
H          0.57940       -1.01211       -0.01754
H          2.98055        0.96789        0.19719
H          2.69723       -1.90152       -0.84409
H          5.17460       -1.60788       -0.17486
H          5.06393        0.09504       -0.62322
H          4.69691       -2.27182       -2.54637
H          5.34056       -0.42116       -4.26575
H          4.88641        0.73874       -3.02487
H          3.02907       -1.41089       -4.23995
H          3.02738        0.31457       -4.65923
H          2.52578       -0.20449       -3.03734
H          7.15959       -0.48601       -2.09731
H          7.01902       -1.78513       -3.30079
H          7.00324       -2.17482       -1.56586
