24
5-METHYL-TRANS-3-HEPTENE.gamout	Energy:    -314.0364305
C          1.02669        2.92098        3.90099
C          1.47843        2.11194        2.67548
C          2.96653        2.13844        2.45812
C          3.75858        1.06109        2.38439
C          5.26281        1.08140        2.16135
C          6.00165        1.78518        3.32535
C          5.62407        1.68307        0.78984
C          7.51333        1.54541        3.35673
H          1.32907        3.97577        3.81050
H         -0.06750        2.89383        4.01059
H          1.47436        2.52222        4.82320
H          1.14228        1.06734        2.76886
H          0.97639        2.52185        1.78094
H          3.41023        3.13661        2.35215
H          3.29278        0.07458        2.49088
H          5.60223        0.03192        2.15773
H          5.79595        2.86736        3.27547
H          5.56219        1.43884        4.27345
H          5.33570        2.74382        0.74314
H          6.70261        1.61448        0.58926
H          5.09712        1.15780       -0.01899
H          7.97372        2.05582        4.21510
H          7.73942        0.47159        3.44663
H          8.00993        1.91696        2.44882
