22
ACENAPHTHENE.gamout	Energy:    -462.7028088
C          3.29957        3.00761        1.73583
C          4.07833        3.98258        2.40136
C          1.93447        3.36736        1.64886
C          3.83004        1.80196        1.21399
C          3.17192        5.12956        2.81621
C          5.43115        3.75941        2.55805
C          1.74452        4.72030        2.31513
C          1.05911        2.50342        1.02256
C          2.90179        0.93159        0.57334
C          5.22915        1.60025        1.39112
C          5.99282        2.55478        2.04330
C          1.56420        1.28259        0.48753
H          3.19127        5.27928        3.90668
H          3.50198        6.07996        2.36906
H          6.07543        4.48080        3.06433
H          1.33570        5.45910        1.60876
H          1.02590        4.65894        3.14694
H         -0.00390        2.73379        0.92894
H          3.24850       -0.01335        0.15066
H          5.69693        0.69026        1.01068
H          7.06372        2.38218        2.16941
H          0.86834        0.60186       -0.00745
