22
ACETAL.gamout	Energy:    -387.0114476
C          5.49052        0.65960        1.93910
C          4.43115        1.73232        1.74146
O          3.19329        1.10120        1.66539
O          4.40450        2.65663        2.81756
C          2.09668        1.93847        1.32055
C          0.86652        1.07207        1.12550
C          5.27688        3.76680        2.70931
C          5.00387        4.71875        3.85984
H          5.48961       -0.03335        1.08693
H          6.48762        1.11236        2.02106
H          5.27223        0.10162        2.85873
H          4.61931        2.30254        0.80450
H          1.93136        2.68279        2.11575
H          2.33637        2.49062        0.39137
H          0.62459        0.53246        2.05152
H          0.00459        1.69806        0.85330
H          1.02963        0.33719        0.32480
H          5.11625        4.27629        1.73938
H          6.33244        3.43680        2.73071
H          5.17186        4.21804        4.82321
H          5.67372        5.58849        3.79786
H          3.96491        5.07519        3.82801
