6
ACETONITRILE.gamout	Energy:    -132.5821051
C          0.41003        0.89538        0.51957
C          1.86887        0.94257        0.48962
N          3.02544        0.97972        0.46572
H         -0.00936        1.78281        0.02462
H          0.04771       -0.00237       -0.00112
H          0.05080        0.86898        1.55817
