19
ACETANILIDE.gamout	Energy:    -439.7136247
C          6.47189        1.86179       -0.66018
C          6.87088        0.56882       -0.30593
C          5.10837        2.14956       -0.75795
C          1.61996       -2.49806        0.46053
C          2.26557       -1.17063        0.09592
C          4.13907        1.17383       -0.50969
C          4.54379       -0.12458       -0.15433
N          3.64190       -1.17578        0.11450
C          5.91702       -0.41585       -0.05532
O          1.59238       -0.19120       -0.17908
H          7.21670        2.63425       -0.85713
H          7.93100        0.32231       -0.22364
H          4.78298        3.15458       -1.03321
H          2.33397       -3.32172        0.59506
H          1.04845       -2.36402        1.38982
H          0.90500       -2.76436       -0.32919
H          3.08007        1.40107       -0.58621
H          4.07663       -2.05509        0.35794
H          6.23694       -1.42401        0.22086
