4
AMMONIA.gamout	Energy:     -56.4880673
N         -0.00065       -0.02226        0.02357
H          1.01702       -0.01659        0.01418
H         -0.31045        0.94726        0.01420
H         -0.31039       -0.44886       -0.84702
