34
AMOBARBITAL.gamout	Energy:    -764.3117289
O          0.16178       -1.56842       -2.04644
O          0.40930        1.16035        1.83346
O          3.25666       -2.30958        1.18065
N          1.75628       -1.84527       -0.47629
N          1.83412       -0.54790        1.45998
C          0.27492        0.15540       -0.35654
C         -1.26531        0.28405       -0.35782
C         -1.99041       -0.75807        0.50159
C          0.95177        1.33704       -1.15110
C         -3.52199       -0.75400        0.33151
C          0.68689       -1.15462       -1.03463
C          0.80726        0.30246        1.07407
C          0.49462        1.53129       -2.59679
C         -4.15546        0.57260        0.77470
C         -4.14793       -1.93763        1.08063
C          2.35771       -1.61983        0.75259
H         -1.50685        1.29926       -0.01942
H         -1.60422        0.18935       -1.39683
H         -1.62225       -1.76359        0.24087
H         -1.75090       -0.59812        1.56560
H          2.04307        1.18935       -1.12716
H          0.74857        2.24634       -0.56836
H         -3.73099       -0.88920       -0.74448
H          0.64553        0.63034       -3.20416
H         -0.56655        1.80537       -2.65565
H          1.07209        2.34968       -3.04881
H         -3.80059        1.42253        0.17585
H         -3.92100        0.78273        1.83021
H         -5.24969        0.53559        0.67453
H         -3.96989       -1.85432        2.16448
H         -5.23541       -1.97546        0.92343
H         -3.72473       -2.89508        0.74264
H          2.07484       -2.67076       -0.97432
H          2.22956       -0.39594        2.38274
