14
ANILINE.gamout	Energy:    -287.2366899
C         -0.37496        1.02921       -0.43848
C         -0.98370       -0.22500       -0.62815
C          0.95957        1.11745       -0.04406
C          1.71756       -0.03612        0.17289
C          1.11933       -1.28425       -0.01650
C         -0.21462       -1.38312       -0.41061
N         -2.32897       -0.31702       -0.97676
H         -0.95873        1.93759       -0.60053
H          1.41252        2.10107        0.09659
H          2.75925        0.03755        0.48297
H          1.69823       -2.19589        0.14500
H         -0.67234       -2.36409       -0.55211
H         -2.75398        0.49812       -1.39773
H         -2.64283       -1.18691       -1.38543
