24
ANTHRACENE.gamout	Energy:    -538.8235558
C         -0.02408       -0.18681       -0.00970
C         -1.16016       -0.90708       -0.28048
C          1.22150       -0.84363        0.25256
C          2.40024       -0.13649        0.53242
C          3.61453       -0.79078        0.78779
C          4.82402       -0.07918        1.07458
C          5.99673       -0.74756        1.32046
C         -1.12234       -2.33469       -0.30599
C          1.25987       -2.29146        0.22667
H         -0.05329        0.90452        0.00964
C          0.05038       -3.00308       -0.06012
C          2.47416       -2.94575        0.48206
H         -2.10081       -0.39009       -0.47813
H         -2.03446       -2.89346       -0.52289
H          0.07855       -4.09444       -0.07965
H          2.37213        0.95531        0.55194
C          3.65291       -2.23863        0.76189
H          2.50226       -4.03756        0.46253
C          4.89848       -2.89539        1.02418
H          4.79587        1.01218        1.09414
C          6.03458       -2.17516        1.29497
H          6.90883       -0.18878        1.53745
H          4.92770       -3.98672        1.00481
H          6.97523       -2.69213        1.49266
