7
ASF6-1.gamout	Energy:   -2834.1522234
F         -5.38496        1.72448        0.23976
As        -3.63042        1.65716       -0.00001
F         -3.67368       -0.10437        0.18542
F         -3.87595        1.47826       -1.74555
F         -3.38539        1.83518        1.74573
F         -1.87622        1.58904       -0.23985
F         -3.58788        3.41887       -0.18549
