29
AZELAIC_ACID.gamout	Energy:    -652.7372861
C          1.50553        1.28759        3.00702
C          2.55804        1.90867        2.07285
C          3.98438        1.74254        2.60382
C          0.08724        1.44414        2.51219
C          5.04693        2.35793        1.68846
O         -0.10514        0.84322        1.31309
O         -0.80279        2.02459        3.08699
C          6.47489        2.19134        2.21573
C          7.53588        2.80227        1.29680
C          8.96181        2.62537        1.84339
C         10.00488        3.19597        0.90979
O         10.74552        4.17036        1.48624
O         10.18035        2.84800       -0.23355
H          1.54958        1.74294        4.00455
H          1.70281        0.20841        3.11754
H          2.47585        1.45020        1.07598
H          2.33688        2.98108        1.94360
H          4.05915        2.19705        3.60658
H          4.19913        0.66822        2.73901
H          4.97202        1.90288        0.68619
H          4.83162        3.43175        1.55184
H         -1.03225        0.97859        1.06050
H          6.69053        1.11734        2.35247
H          6.54936        2.64709        3.21804
H          7.33075        3.87702        1.16043
H          7.47677        2.34476        0.29766
H          9.18491        1.55106        1.94558
H          9.06305        3.08534        2.83516
H         11.38476        4.48519        0.82644
