12
BENZENE.gamout	Energy:    -231.9407046
C          3.29210        3.39461        0.23492
C          1.90222        3.53935        0.22405
C          3.86225        2.12061        0.16125
C          1.08253        2.41047        0.13955
C          3.04253        0.99177        0.07676
C          1.65280        1.13660        0.06588
H          3.93216        4.27608        0.30091
H          1.45692        4.53394        0.28158
H          4.94762        2.00724        0.16986
H         -0.00285        2.52366        0.13110
H          3.48786       -0.00276        0.01955
H          1.01276        0.25518       -0.00021
