16
BENZAMIDE.gamout	Energy:    -400.4573258
O          2.37671       -1.11791        0.00296
N          2.48571        1.13632        0.00081
C          0.28799        0.03820        0.00059
C         -0.43514        1.24277       -0.00118
C         -0.41740       -1.17578        0.00149
C         -1.83187        1.23225       -0.00198
C         -1.81246       -1.18675        0.00069
C         -2.52403        0.01755       -0.00102
C          1.79461       -0.04213        0.00155
H          0.07300        2.20805       -0.00187
H          0.15545       -2.10300        0.00281
H         -2.38015        2.17570       -0.00330
H         -2.34687       -2.13834        0.00140
H         -3.61540        0.01049       -0.00171
H          2.04939        2.04409       -0.00041
H          3.49433        1.08653        0.00139
