19
BETAINE.gamout	Energy:    -401.8189444
O          2.53800       -0.59788        0.21026
O          1.41747        0.85818       -1.12813
N         -1.09807        0.04025       -0.05892
C          0.22780       -0.52496        0.46193
C         -1.24380       -0.27923       -1.52123
C         -2.22528       -0.58318        0.69664
C         -1.12857        1.53064        0.13515
C          1.54712       -0.01992       -0.24519
H          0.27959       -0.27130        1.52795
H          0.16545       -1.61546        0.36363
H         -1.20007       -1.36714       -1.64001
H         -2.21305        0.09866       -1.86652
H         -0.40617        0.19686       -2.04060
H         -2.07956       -0.40722        1.76759
H         -3.17151       -0.13525        0.37091
H         -2.23656       -1.66022        0.49907
H         -1.03216        1.74207        1.20579
H         -0.27723        1.94351       -0.41652
H         -2.08541        1.91153       -0.23961
