5
BF4-1.gamout	Energy:    -424.0895329
B          0.00029        0.00000        0.00004
F         -0.00036       -1.15696       -0.81787
F         -0.00036        1.15696       -0.81787
F         -1.15725       -0.00000        0.81744
F          1.15768       -0.00000        0.81826
