25
BMIM+1.gamout	Energy:    -422.6149558
C         -0.97885        0.58941       -0.79708
C         -1.92274       -0.12167        0.17384
C         -3.38368       -0.04305       -0.28352
C         -4.32878       -0.78974        0.65825
N          0.43621        0.50869       -0.38036
C          1.16708       -0.60957       -0.31692
N          2.39388       -0.30108        0.12356
C          2.44827        1.05767        0.34787
C          1.21844        1.56497        0.03273
C          3.48514       -1.25522        0.34285
H         -1.05923        0.16789       -1.80865
H         -1.21412        1.65776       -0.86668
H         -1.62584       -1.18062        0.26171
H         -1.81783        0.32183        1.17691
H         -3.68910        1.01416       -0.35348
H         -3.47259       -0.45730       -1.30123
H         -5.36572       -0.71727        0.30745
H         -4.06772       -1.85725        0.71546
H         -4.28795       -0.37687        1.67693
H          0.82661       -1.60626       -0.58046
H          3.34542        1.54920        0.70548
H          0.84561        2.58225        0.06484
H          3.76280       -1.73575       -0.60349
H          4.34646       -0.70986        0.73803
H          3.17253       -2.01589        1.06798
