27
BMPY+1.gamout	Energy:    -444.6414879
C         -5.50909       -1.69849        0.00260
C         -4.54588       -0.51178        0.03200
H         -5.36714       -2.35173        0.87681
H         -5.36734       -2.30974       -0.90150
H         -6.55106       -1.35403        0.01176
C         -3.07868       -0.94919        0.01618
H         -4.73775        0.09570        0.93146
H         -4.74148        0.14473       -0.83126
C         -2.14802        0.25044        0.06457
H         -2.89193       -1.53865       -0.89620
H         -2.89418       -1.60952        0.87911
N         -0.68552       -0.07428        0.04146
H         -2.31549        0.83451        0.97950
H         -2.32425        0.91225       -0.79429
C          0.18545        0.96015        0.06670
C         -0.24681       -1.34511       -0.00346
C          1.54613        0.72536        0.04447
H         -0.24000        1.96166        0.10414
C          2.01250       -0.59050       -0.00384
H          2.22995        1.57332        0.06466
C          1.11171       -1.65956       -0.02805
H          3.08645       -0.78541       -0.02210
H         -1.00448       -2.12037       -0.02018
C          1.54149       -3.09833       -0.07847
H          2.63264       -3.18256       -0.09157
H          1.14460       -3.59609       -0.97625
H          1.16200       -3.65279        0.79313
