5
BROMOMETHANE.gamout	Energy:   -2613.5868369
H          0.01165        0.98316       -0.00796
C          1.10559        0.99747        0.01827
H          1.48493        2.02368       -0.00866
H          1.48425        0.46226        0.89458
Br         1.75846        0.07365       -1.58141
