5
BROMODIFLUOROMETHANE.gamout	Energy:   -2811.8583875
C          1.13077        2.15510        0.46134
Br         2.68191        2.87048        1.41443
F          0.61539        3.09861       -0.34164
F          1.50377        1.11137       -0.29397
H          0.38462        1.84125        1.20203
