5
BROMODICHLOROMETHANE.gamout	Energy:   -3532.3922077
Br        -1.82080        0.00164        0.14439
Cl         0.89948        1.47117        0.15854
Cl         0.89679       -1.47284        0.15834
C          0.06096       -0.00003       -0.39236
H          0.06780        0.00003       -1.48419
