12
BROMOBENZENE.gamout	Energy:   -2805.0763505
Br        -1.63782       -0.00000       -0.00014
C          0.27819        0.00001        0.00017
C          0.96266        1.21768        0.00030
C          2.36156        1.20912        0.00032
C          3.06325       -0.00000       -0.00068
C          2.36154       -1.20912       -0.00067
C          0.96265       -1.21767        0.00156
H          0.41440        2.15979        0.00050
H          2.90115        2.15799        0.00083
H          4.15443       -0.00003       -0.00121
H          2.90110       -2.15800       -0.00130
H          0.41437       -2.15977        0.00109
