15
BTI-1.gamout	Energy:   -1825.7890571
F         -2.30545        1.27180        3.66628
F         -1.25448        2.98636        2.85283
F         -3.40681        2.81844        2.62906
C         -2.25689        2.12675        2.64806
S         -2.04589        1.22755        0.97611
O         -2.83776       -0.00667        1.13047
O         -2.47937        2.24087        0.00189
O          1.87323        0.25181        1.15976
O          0.14791       -0.31445        2.94352
S          0.48016       -0.04626        1.53103
N         -0.45439        1.03264        0.77385
F          1.23114       -2.51274        0.85768
F         -0.90645       -2.33322        1.15280
F          0.00472       -1.54515       -0.65054
C          0.16723       -1.71663        0.66568
