13
BUTAN-2-ONE.gamout	Energy:    -232.1711043
C          1.96593        2.04277        2.66789
C          0.48095        2.33847        2.84655
C          2.34635        1.54131        1.28109
C          3.81276        1.23089        1.05100
O          1.52075        1.39620        0.40313
H          2.57987        2.93725        2.87394
H          2.31423        1.28978        3.39691
H         -0.12210        1.43897        2.66434
H          0.27816        2.69472        3.86606
H          0.14546        3.10631        2.13649
H          3.96583        0.88055        0.02435
H          4.42592        2.12738        1.23388
H          4.15618        0.46228        1.76135
