25
BUTYRIC_ANHYDRIDE.gamout	Energy:    -538.3081840
O          4.90795        1.44934        2.04371
C          3.65777        0.84957        2.16690
C          2.56193        1.86312        1.95759
O          3.51838       -0.32072        2.37048
C          6.04153        0.95019        2.67821
C          2.43443        2.85325        3.13218
C          7.28805        1.36071        1.93513
O          5.99140        0.33809        3.70468
C          1.30577        3.86252        2.91667
C          7.51091        2.88514        1.90841
C          8.79378        3.26988        1.16988
H          1.62719        1.30387        1.82204
H          2.77326        2.41934        1.03055
H          3.38991        3.38265        3.26403
H          2.25667        2.28758        4.05995
H          7.21063        0.98501        0.90185
H          8.13132        0.85596        2.42415
H          1.47514        4.46312        2.00963
H          1.22887        4.55435        3.76732
H          0.33472        3.35617        2.80740
H          7.55188        3.25903        2.94375
H          6.64517        3.36748        1.43156
H          9.67823        2.81856        1.64447
H          8.93363        4.35999        1.16745
H          8.76562        2.93178        0.12258
