28
BUTYLPARABEN.gamout	Energy:    -652.4831226
O          1.25625        0.10433        0.05645
O          0.46691        2.20916        0.16673
O         -4.95824       -1.13854       -0.08329
C          3.55708       -0.57332        0.03675
C          5.02580       -0.13556        0.07049
C          2.60399        0.60730        0.09563
C          6.00609       -1.30823        0.01324
C         -1.08934        0.39633        0.04939
C          0.26310        1.01462        0.09766
C         -2.21439        1.23892        0.08408
C         -1.28201       -0.99198       -0.03069
C         -3.50054        0.71489        0.03932
C         -2.56748       -1.52702       -0.07635
C         -3.68109       -0.67429       -0.04153
H          3.35906       -1.14773       -0.88282
H          3.34745       -1.24794        0.88273
H          5.20943        0.45053        0.98671
H          5.21992        0.54897       -0.77226
H          2.73488        1.19572        1.01602
H          2.75001        1.29301       -0.75216
H          5.85922       -1.98949        0.86540
H          5.87282       -1.89534       -0.90848
H          7.04765       -0.95803        0.03969
H         -2.05511        2.31550        0.14604
H         -0.41756       -1.65313       -0.05797
H         -4.37870        1.36044        0.06539
H         -2.70992       -2.60879       -0.13915
H         -4.97572       -2.10115       -0.13845
