21
CAFFEIC_ACID.gamout	Energy:    -647.8970363
C          1.31003       -0.57277        0.27072
C          0.63371        0.59702        0.24508
C         -0.80326        0.78958        0.06451
C          2.76323       -0.68141        0.45621
C         -1.70645       -0.28305       -0.11209
C         -1.32508        2.09522        0.06274
O          3.40005        0.50965        0.60576
O          3.37016       -1.73338        0.47779
C         -3.06804       -0.06959       -0.28328
C         -2.69171        2.31991       -0.10867
O         -3.97214       -1.07018       -0.45659
C         -3.57484        1.25274       -0.28242
O         -4.91138        1.40231       -0.45351
H          0.81726       -1.53811        0.15236
H          1.21330        1.51472        0.37119
H         -1.33857       -1.31103       -0.11648
H         -0.65297        2.94393        0.19650
H          4.34205        0.31373        0.71890
H         -3.08295        3.34023       -0.10836
H         -3.53540       -1.92950       -0.44289
H         -5.15475        2.33525       -0.43733
