3
CARBON_DISULFIDE.gamout	Energy:    -834.1099305
S          1.56355        0.00000        0.00000
S         -1.56355        0.00000        0.00000
C         -0.00000        0.00000        0.00000
