8
CF3SO3-1.gamout	Energy:    -960.7507588
C          1.01973       -0.06186        0.03143
F          0.58812       -0.60900        1.18416
F          0.59351        1.21592        0.01229
F          2.36572       -0.03251        0.08205
S          0.39752       -1.02816       -1.47560
O         -1.07720       -0.92578       -1.32649
O          0.97465       -2.37752       -1.24460
O          0.98195       -0.26329       -2.60734
