6
CHLOROTRIFLUOROETHYLENE.gamout	Energy:    -835.2820197
C          9.00452       18.00457        0.00000
C         10.33931       18.02473        0.00000
Cl        11.28429       19.45934       -0.00000
F         11.03064       16.88705        0.00000
F          8.29897       16.89208       -0.00000
F          8.24891       19.08144        0.00000
