5
CHLOROFORM.gamout	Energy:   -1418.6690964
C         -0.00002        0.00003        0.45467
H         -0.00000        0.00029        1.54722
Cl         0.00003        1.70180       -0.08374
Cl         1.47364       -0.85089       -0.08376
Cl        -1.47366       -0.85093       -0.08376
