10
CHLOROPENTAFLUOROACETONE.gamout	Energy:   -1147.9887829
C          1.01779        0.01457       -0.02993
C          0.33037       -0.91877        1.02411
O         -0.41623       -0.47558        1.83917
C          0.67043       -2.44420        0.91747
F          0.35965        1.16459       -0.11694
F          1.04766       -0.55935       -1.23913
F          2.27705        0.26643        0.35878
F         -0.13733       -2.97853       -0.01902
F          1.94014       -2.60248        0.50843
Cl         0.43184       -3.28014        2.46138
