12
CHLOROBENZENE.gamout	Energy:    -691.3540937
C         -0.24351        1.21473        0.00000
C         -0.93100        0.00012        0.00000
C          1.15420        1.20752       -0.00000
C          1.85634       -0.00014       -0.00000
C          1.15424       -1.20766        0.00000
C         -0.24334       -1.21441        0.00000
Cl        -2.69275       -0.00006       -0.00000
H         -0.79573        2.15345        0.00000
H          1.69526        2.15520        0.00000
H          2.94763       -0.00012       -0.00000
H          1.69515       -2.15533       -0.00000
H         -0.79565       -2.15296        0.00000
