5
CHLORODIBROMOMETHANE.gamout	Energy:   -5646.1153982
Br         1.61612       -0.89093        0.16544
Br        -1.61602       -0.89113        0.16524
Cl        -0.00011        1.74093        0.15366
C          0.00002        0.04926       -0.39490
H          0.00010        0.04955       -1.48635
