10
CHLORAL_HYDRATE.gamout	Energy:   -1608.2108281
Cl        -0.81987       -1.33879        0.49452
Cl        -0.40263        0.56056       -1.71064
Cl        -1.59015        1.46624        0.81231
O          1.43378        1.96254        0.35104
O          1.98653       -0.21212        0.15041
C          1.03857        0.68041        0.65072
C         -0.39334        0.36899        0.07062
H          0.93922        0.61930        1.74764
H          1.66801        2.00868       -0.58799
H          1.72698       -1.12506        0.33447
