19
CINNAMIC_ACID.gamout	Energy:    -497.6120625
C          1.56273        0.91558        2.32755
C          2.83664        0.53273        2.55562
C          3.97897        1.39296        2.87968
C          0.46960       -0.01700        2.00687
C          5.23940        0.79707        3.08625
C          3.87819        2.79592        2.99633
O          0.84555       -1.32069        1.95542
O         -0.67691        0.32429        1.80197
C          6.35935        1.56943        3.39784
C          4.99561        3.56618        3.30685
C          6.24134        2.95735        3.50918
H          1.24617        1.95813        2.36469
H          3.05627       -0.53602        2.49577
H          5.33497       -0.28724        3.00021
H          2.91705        3.28679        2.84313
H          0.05401       -1.83591        1.73901
H          7.32580        1.08692        3.55363
H          4.89779        4.64971        3.39266
H          7.11490        3.56448        3.75243
