15
CIS-1,2-DIMETHYLCYCLOPROPANE.gamout	Energy:    -196.2531417
C          3.03413        2.04206        2.50715
C          3.94219        0.86861        2.20182
C          1.63382        2.17195        1.94474
C          1.83568        1.89037        3.41629
C          1.01317        1.14104        1.02455
H          3.57130        2.99039        2.60462
H          3.38712       -0.07727        2.14097
H          4.70148        0.75305        2.99054
H          4.47075        1.00887        1.24570
H          1.33643        3.19778        1.70736
H          1.61613        2.67403        4.14366
H          1.60141        0.88217        3.76788
H         -0.08547        1.20069        1.06173
H          1.29431        0.11651        1.30341
H          1.32201        1.30043       -0.02082
