27
CIS-1-METHYL-4-ETHYLCYCLOHEXANE.gamout	Energy:    -353.3190533
C          0.70701        1.73548        1.16333
C          2.05414        1.01166        1.09044
C          3.13226        1.55162        2.04346
C          3.63485        2.95625        1.67544
C          4.33786        0.58197        2.12607
C          4.56285        3.53695        2.76503
C          5.64504        1.26833        2.57795
C          5.37406        2.45229        3.51742
C          6.65695        3.02296        4.12571
H          0.79218        2.79453        0.88028
H         -0.02696        1.27316        0.48750
H          0.29394        1.69407        2.18332
H          1.89500       -0.05636        1.31422
H          2.44313        1.04808        0.05792
H          2.67612        1.61611        3.04813
H          4.17663        2.88736        0.71675
H          2.79572        3.64365        1.49938
H          4.08559       -0.23950        2.81509
H          4.49400        0.11452        1.14027
H          5.26072        4.25494        2.30402
H          3.97165        4.11384        3.49381
H          6.30684        0.53675        3.06547
H          6.19958        1.63932        1.69900
H          4.75170        2.07673        4.34908
H          7.18322        2.26920        4.73012
H          7.34576        3.36263        3.33572
H          6.44323        3.88525        4.77494
