28
cis-DECAHYDRONAPHTHALENE.gamout	Energy:    -391.3784828
C          0.12766        0.81027       -0.69710
C         -1.34020        0.33562       -0.55059
C          1.08141       -1.15852        0.57820
H         -0.38987       -2.77158        0.74716
H         -0.19420       -2.14936       -0.88442
C          0.95948        0.39262        0.52707
H          0.57136        0.38238       -1.60936
H          0.16174        1.90212       -0.82752
C         -1.46795       -0.92241        0.33864
H         -1.95077        1.14582       -0.12281
H         -1.76285        0.13028       -1.54621
C         -0.25391       -1.84258        0.17361
H         -1.55903       -0.62689        1.39606
H         -2.39423       -1.46365        0.09641
C          2.32571        1.09517        0.64792
C          2.23775       -1.69675       -0.28798
H          4.34058       -1.38666       -0.72748
H          3.91940       -1.15446        0.97207
H          0.38272        0.70071        1.41484
C          3.40572        0.53230       -0.28241
H          2.19279        2.17550        0.47873
H          2.68173        0.99161        1.68736
C          3.56859       -0.97465       -0.05944
H          3.13452        0.71893       -1.33559
H          4.35816        1.05719       -0.11108
H          1.30477       -1.42590        1.62590
H          2.34659       -2.77765       -0.10460
H          1.96436       -1.59997       -1.35286
