21
CIS-1,2-DIMETHYLCYCLOPENTANE.gamout	Energy:    -274.8000503
C          2.23325        2.93410        3.82138
C          2.32235        1.54291        3.17914
C          2.06657        1.53568        1.64851
C          3.74397        0.94874        3.26257
C          0.84829        2.31211        1.15286
C          3.41266        2.00273        1.04774
C          4.50829        1.53748        2.04645
H          2.92210        3.65126        3.35005
H          1.21873        3.35031        3.74995
H          2.49370        2.88097        4.88861
H          1.59638        0.88634        3.68593
H          1.92782        0.47663        1.36696
H          4.23723        1.16271        4.22137
H          3.68696       -0.14681        3.16960
H          0.72694        2.19643        0.06571
H         -0.07758        1.95665        1.63017
H          0.94450        3.38825        1.35944
H          3.56327        1.60283        0.03520
H          3.41692        3.09956        0.95162
H          5.14059        2.38335        2.35109
H          5.18206        0.79239        1.60152
