13
CIS-1,3-PENTADIENE.gamout	Energy:    -195.0373998
C          2.85511        0.48417        1.74565
C          1.49631        1.02217        1.89622
C          1.09249        2.30754        1.85403
C          3.82678        0.93010        0.93215
C          1.93622        3.53543        1.67644
H          3.06773       -0.40574        2.34991
H          0.72774        0.27081        2.10757
H          0.02155        2.48889        1.99255
H          3.67834        1.76782        0.24891
H          4.80227        0.44116        0.90490
H          1.86239        3.92759        0.64717
H          2.99725        3.34135        1.88250
H          1.58852        4.33876        2.34414
