19
CIS-BETA-METHYLSTYRENE.gamout	Energy:    -348.4975171
C          3.31736        2.87968        1.93235
C          3.62727        3.21414        3.26616
C          2.62658        3.59185        4.16425
C          1.96895        2.97160        1.52979
C          4.33544        2.48138        0.93982
C          0.96845        3.34566        2.42723
C          1.29188        3.65198        3.75325
C          5.47241        1.78214        1.12092
C          6.00414        1.16216        2.38111
H          4.66487        3.21432        3.59725
H          2.89465        3.85104        5.19038
H          1.70666        2.73628        0.49596
H          4.10324        2.77630       -0.08868
H         -0.06848        3.40094        2.09017
H          0.51163        3.94849        4.45638
H          6.08072        1.61130        0.22713
H          6.82928        1.75838        2.80859
H          6.42002        0.16632        2.16427
H          5.23355        1.05174        3.15431
