27
CIS-1-METHYL-3-ETHYLCYCLOHEXANE.gamout	Energy:    -353.3287622
C          3.03159        2.73217        1.44044
C          4.29381        3.44097        0.93366
C          5.47443        2.47419        0.79277
C          3.27664        1.96205        2.75068
C          4.47534        1.01098        2.59148
C          2.02922        1.20315        3.23626
C          5.75253        1.70965        2.09705
C          6.91393        0.72429        1.94539
C          0.87274        2.09114        3.70418
H          2.22409        3.46608        1.57377
H          2.68120        2.01815        0.67310
H          4.08632        3.93310       -0.02888
H          4.56658        4.24371        1.64054
H          5.25785        1.74406       -0.00801
H          6.37842        3.02000        0.47994
H          3.54104        2.70414        3.52853
H          4.20567        0.21058        1.87805
H          4.67731        0.51084        3.55234
H          1.67981        0.53695        2.42878
H          2.32513        0.54172        4.06726
H          6.03626        2.45707        2.86186
H          6.67638       -0.04908        1.19759
H          7.83226        1.23387        1.61756
H          7.13378        0.21345        2.89477
H          1.18647        2.73838        4.53780
H          0.49722        2.73981        2.90002
H          0.02626        1.48379        4.05612
