24
CIS-1,2-DIMETHYLCYCLOHEXANE.gamout	Energy:    -314.0578858
C          2.48898        1.06380        5.19276
C          2.86553        1.06285        3.70800
C          1.67390        1.38741        2.75197
C          4.06132        1.98053        3.40327
C          2.18836        1.77628        1.33976
C          4.63580        1.71469        1.99141
C          3.56149        1.17875        1.01854
H          3.32039        0.67450        5.79782
H          2.26278        2.07723        5.55553
H          1.60918        0.43271        5.38793
H          3.18561        0.03511        3.46559
H          4.84448        1.84525        4.16427
H          3.73831        3.03105        3.49060
H          2.26118        2.87554        1.27252
H          1.44596        1.47842        0.58433
H          5.46855        0.99721        2.05275
H          5.06509        2.64477        1.58802
H          3.84271        1.40938       -0.01950
H          3.50727        0.07984        1.07972
C          0.72353        2.47166        3.27800
H          1.08838        0.45698        2.65630
H         -0.03736        2.71154        2.52052
H          0.19401        2.16042        4.18827
H          1.26601        3.40288        3.50357
