12
CIS-2-BUTENE.gamout	Energy:    -157.0051382
C          1.18142        1.42147        0.58159
C          2.47166        1.05462        0.61045
C          3.66668        1.90915        0.92385
C          0.60251        2.77982        0.85899
H          0.44992        0.64673        0.32734
H          2.69643        0.00775        0.37871
H          3.40020        2.94890        1.15110
H          4.22186        1.50669        1.78775
H          4.37340        1.91925        0.07713
H         -0.11259        2.73588        1.69753
H          1.36705        3.52610        1.10791
H          0.03843        3.15126       -0.01275
