21
CIS-1,3-DIMETHYLCYCLOPENTANE.gamout	Energy:    -274.8031317
C          2.05588        1.90891        2.18035
C          0.64055        1.61183        1.68965
C          2.67649        3.20877        1.64300
C          3.10275        0.82881        1.80090
C          4.17472        3.06308        1.95579
C          4.45813        1.57172        1.64303
C          5.08915        4.04485        1.22681
H          2.03064        1.98834        3.28181
H          0.61761        1.53270        0.59109
H         -0.06305        2.40442        1.98552
H          0.26682        0.66251        2.10179
H          2.23055        4.11367        2.08291
H          2.52817        3.26734        0.54905
H          2.81409        0.35075        0.85176
H          3.14587        0.02679        2.55168
H          4.30078        3.21517        3.04293
H          4.82909        1.47703        0.61042
H          5.24354        1.16247        2.29446
H          6.14590        3.87260        1.48089
H          4.84906        5.08692        1.48547
H          4.98510        3.93539        0.13545
