27
CLOFENAMIC_ACID.gamout	Energy:   -1625.1780303
Cl         2.67860        0.04271        3.51469
Cl         5.16399        1.33588        1.99566
O         -3.25962       -1.31916        3.57131
O         -1.25112       -0.34719        3.67148
N          0.52029       -0.90704        1.73468
C         -0.37156       -1.88062        1.33162
C          1.60782       -0.38028        1.03954
C         -1.63119       -2.02576        1.99690
C         -0.06763       -2.78869        0.29140
C          2.70965        0.12990        1.77125
C          1.63821       -0.26856       -0.36273
C         -2.52929       -3.02709        1.57342
C         -0.97395       -3.76580       -0.09915
C         -2.22111       -3.88887        0.53038
C          3.79915        0.70630        1.10351
C          2.73371        0.29369       -1.01358
C          3.82303        0.77987       -0.29090
C         -1.99198       -1.15567        3.13160
H          0.29790       -0.48387        2.63635
H          0.90506       -2.73820       -0.19218
H          0.77762       -0.59864       -0.94137
H         -3.48148       -3.11865        2.09243
H         -0.69608       -4.45159       -0.90191
H         -2.92960       -4.65657        0.21908
H          2.73113        0.37113       -2.10173
H          4.68161        1.22476       -0.79133
H         -3.38010       -0.71360        4.31838
