4
CO3-2.gamout	Energy:    -263.3926443
O          1.07360        0.74441        0.00000
O          0.10828       -1.30153       -0.00000
O         -1.18184        0.55678       -0.00000
C          0.00007        0.00034        0.00000
