9
CYANURIC_CHLORIDE.gamout	Energy:   -1658.2565344
C         -0.75166       -1.01155       -0.25145
N          0.55182       -1.23696       -0.15954
N         -1.34936        0.16333       -0.10702
Cl        -1.76556       -2.37514       -0.59102
C          1.27180       -0.15432        0.10117
C         -0.51985        1.16526        0.15070
N          0.79789        1.07298        0.26695
Cl         2.98665       -0.36252        0.23807
Cl        -1.22073        2.73690        0.35374
