16
CYCLOPENTANOL.gamout	Energy:    -271.4205889
O         -0.00099        2.17411        2.76999
C          1.38386        1.93125        2.59600
C          2.26414        3.18731        2.50220
C          3.61362        2.66147        1.97409
C          3.27737        1.36455        1.16762
C          1.75512        1.15318        1.32255
H         -0.33205        2.68521        2.02118
H          1.67722        1.34651        3.48268
H          1.80647        3.87772        1.77218
H          2.34080        3.72539        3.45658
H          4.13563        3.40870        1.36152
H          4.28242        2.42251        2.81346
H          3.56898        1.45003        0.11223
H          3.83071        0.50680        1.57544
H          1.21501        1.60623        0.47331
H          1.45834        0.09697        1.36915
