9
CYCLOPROPANE.gamout	Energy:    -117.7317387
C         -0.02607        0.86975        0.00000
C         -0.74053       -0.45747       -0.00000
C          0.76651       -0.41238        0.00000
H         -0.04333        1.46430       -0.91537
H         -0.04333        1.46430        0.91537
H         -1.24530       -0.76946        0.91601
H         -1.24530       -0.76947       -0.91601
H          1.28916       -0.69365       -0.91595
H          1.28916       -0.69365        0.91595
