19
CYCLOHEXANETHIOL.gamout	Energy:    -633.5759511
S         -3.39017        0.32692        2.74572
C         -3.86506        1.01942        1.09283
C         -5.10041        1.90994        1.29190
C         -4.12824       -0.07119        0.04768
C         -5.56324        2.51743       -0.04201
C         -4.58871        0.53819       -1.28717
C         -5.81968        1.43588       -1.09991
H         -2.31853       -0.38545        2.32712
H         -3.02868        1.65140        0.75614
H         -5.91495        1.30165        1.72056
H         -4.87842        2.70558        2.01829
H         -3.22146       -0.67655       -0.10422
H         -4.90294       -0.75222        0.43570
H         -6.47073        3.11811        0.12228
H         -4.79061        3.21286       -0.41249
H         -4.80433       -0.26605       -2.00676
H         -3.76609        1.13324       -1.72035
H         -6.67646        0.81602       -0.78435
H         -6.10303        1.89918       -2.05740
