14
CYCLOPENTANONE.gamout	Energy:    -270.2259009
C          0.85815        1.97151       -0.14550
C          2.27770        1.49912        0.20781
C          2.29571        0.00813       -0.20147
H          2.44447        1.59071        1.29284
H          3.06422        2.08124       -0.29079
C          0.88539       -0.49670        0.14419
H          3.09257       -0.55587        0.30150
H          2.47064       -0.07956       -1.28554
C         -0.02240        0.72742       -0.00196
H          0.82019       -0.81897        1.19802
H          0.51679       -1.32958       -0.46925
H          0.79098        2.29046       -1.20024
H          0.46768        2.79692        0.46453
O         -1.23089        0.71414       -0.00343
