17
CYCLOPENTYLAMINE.gamout	Energy:    -251.5684013
N          0.66135        2.62036        1.78279
C          2.03241        2.14094        1.89260
C          3.02745        3.02605        1.12243
C          4.31917        2.18464        1.00541
C          3.89249        0.70457        1.26092
C          2.35532        0.73075        1.35269
H          0.33832        2.61362        0.81727
H          0.01242        2.06121        2.32971
H          2.29538        2.16897        2.96476
H          2.60635        3.22403        0.12224
H          3.17747        4.00081        1.60495
H          4.78941        2.30795        0.02021
H          5.06468        2.50592        1.74664
H          4.25330        0.02298        0.47855
H          4.31987        0.34523        2.20888
H          1.90561        0.63249        0.34992
H          1.94164       -0.07321        1.97912
