19
CYCLOHEXANOL.gamout	Energy:    -310.6900634
C         -0.99305       -0.00735        0.32483
C         -0.27477       -1.25786       -0.17265
C          1.21052       -1.24789        0.21006
C          1.91133        0.02614       -0.27614
C          1.18281        1.28409        0.21087
C         -0.30031        1.26048       -0.18229
O         -2.34768       -0.09435       -0.11310
H         -0.96444       -0.00543        1.43285
H         -0.77828       -2.14929        0.22802
H         -0.38336       -1.29634       -1.26934
H          1.30915       -1.31920        1.30718
H          1.70479       -2.13944       -0.20278
H          2.95677        0.03888        0.06546
H          1.94140        0.02698       -1.37936
H          1.26856        1.34977        1.30943
H          1.66305        2.18805       -0.19141
H         -0.40450        1.29154       -1.27954
H         -0.81384        2.15113        0.21514
H         -2.84046        0.67538        0.19292
