12
CYCLOBUTANE.gamout	Energy:    -156.9926714
C          1.82606        2.83366        1.05461
C          0.68510        1.79874        0.85578
C          1.72677        0.66788        1.07560
C          2.84957        1.69881        0.77821
H          1.87950        3.18226        2.09631
H          1.84275        3.71110        0.39317
H          0.30723        1.80612       -0.17707
H         -0.17338        1.84466        1.54030
H          1.66288       -0.22018        0.43151
H          1.74886        0.33607        2.12391
H          3.15171        1.67464       -0.27900
H          3.75552        1.66347        1.39918
