13
CYCLOPENTENE.gamout	Energy:    -195.0588233
C          0.69390        2.15111        1.28017
C          1.91813        3.07334        0.99813
C          3.10739        2.14981        1.11719
C          2.75543        0.89258        1.40959
C          1.26045        0.72399        1.54495
H          0.11997        2.51228        2.14474
H         -0.00087        2.14791        0.42909
H          1.87036        3.53804       -0.00132
H          1.98378        3.90922        1.71497
H          4.13539        2.49010        0.97628
H          3.45691        0.06593        1.53980
H          0.87467       -0.01912        0.82653
H          0.98818        0.34460        2.54436
