3
DEUTERIUM_OXIDE.gamout	Energy:     -76.3433569
O          0.85690        0.00360        0.00000
H          1.68490        0.49796        0.00000
H          1.11402       -0.92585        0.00000
