21
DI-N-PROPYL_ETHER.gamout	Energy:    -311.8717949
C          1.74797        2.36263        4.48723
O          1.75543        1.52624        3.34319
C          1.17626        2.08455        2.17857
C          2.82182        3.45356        4.46973
C          1.19173        1.04762        1.06325
C          4.24819        2.90328        4.42391
C          2.59775        0.62847        0.62910
H          0.74673        2.81810        4.61164
H          1.91616        1.69125        5.34303
H          0.13611        2.39520        2.39724
H          1.72961        2.98845        1.85926
H          2.65123        4.13057        3.61730
H          2.68063        4.07094        5.37271
H          0.62036        0.16838        1.40033
H          0.64328        1.47018        0.20585
H          4.99014        3.71463        4.41876
H          4.40416        2.29199        3.52404
H          4.45198        2.26447        5.29748
H          2.55634       -0.12380       -0.17166
H          3.16747        1.49163        0.24991
H          3.15662        0.20052        1.47219
