22
DI-N-PROPYLDISULFIDE.gamout	Energy:   -1032.7984040
C          0.35143        0.44738       -0.75438
C          1.27066        1.04975        0.31358
C          1.16336        2.57465        0.37655
S          2.30102        3.22360        1.67999
S          1.90536        5.26805        1.67998
C          3.04303        5.91698        0.37654
C          2.93573        7.44188        0.31356
C          3.85499        8.04428       -0.75433
H          0.44279       -0.64818       -0.77665
H         -0.70292        0.69347       -0.55662
H          0.60279        0.82582       -1.75703
H          2.31394        0.76349        0.10526
H          1.01867        0.62726        1.29916
H          0.14052        2.88827        0.62743
H          1.43773        3.02345       -0.58886
H          4.06587        5.60337        0.62743
H          2.76867        5.46818       -0.58887
H          1.89247        7.72818        0.10524
H          3.18764        7.86437        1.29917
H          3.76358        9.13984       -0.77661
H          4.90935        7.79825       -0.55658
H          3.60365        7.66591       -1.75700
