34
DI-N-BUTYL_ACETAL.gamout	Energy:    -544.0434559
O        103.56413       29.34607        0.37089
C        102.42427       29.88926       -0.28017
C        104.62815       28.93716       -0.46852
O        101.32831       29.77949        0.56941
C        102.59912       31.35993       -0.62442
C        105.65913       28.19442        0.37074
C        100.92145       28.45913        0.92583
C        106.86651       27.71922       -0.44327
C        101.35574       28.07801        2.33775
C        107.89929       26.96490        0.39765
C        100.85288       26.69210        2.75584
C        101.27901       26.30037        4.17235
H        102.24762       29.29422       -1.20323
H        104.24402       28.27869       -1.27233
H        105.09806       29.80805       -0.96219
H        101.70191       31.73247       -1.13661
H        103.46287       31.50406       -1.28671
H        102.74981       31.93415        0.29857
H        105.98895       28.85686        1.18667
H        105.16240       27.33457        0.84805
H         99.82326       28.43395        0.84447
H        101.32062       27.73375        0.19572
H        106.52212       27.07101       -1.26675
H        107.34840       28.58760       -0.92294
H        102.45312       28.11762        2.38574
H        100.98036       28.84257        3.03721
H        108.75298       26.64028       -0.21428
H        108.28929       27.59881        1.20880
H        107.45562       26.06948        0.85913
H         99.75238       26.66191        2.68131
H        101.22417       25.93844        2.04038
H        100.90849       25.30110        4.44369
H        102.37580       26.28925        4.26503
H        100.89170       27.01603        4.91372
