22
DI-N-PROPYLAMINE.gamout	Energy:    -292.0238799
C          0.01955       -0.15472       -0.01308
C          1.30163        0.67961       -0.00258
C          1.04384        2.18589        0.02521
N          2.28436        2.94551        0.00174
C          2.11724        4.39056        0.02342
C          3.46166        5.11704       -0.00308
C          3.32646        6.64105       -0.01277
H          0.24581       -1.23046       -0.02789
H         -0.59766        0.04421        0.87685
H         -0.59338        0.06937       -0.89987
H          1.91489        0.44707       -0.88702
H          1.91180        0.40465        0.87505
H          0.41237        2.43402        0.90777
H          0.45440        2.47411       -0.86155
H          2.89452        2.64872        0.76060
H          1.52769        4.67764       -0.86371
H          1.53188        4.73728        0.90466
H          4.05226        4.80623        0.87592
H          4.02427        4.77766       -0.88647
H          4.31272        7.12634       -0.02508
H          2.77331        6.98556       -0.90009
H          2.78719        7.00161        0.87677
