40
DIAZINON.gamout	Energy:   -1543.4162398
S          1.80812        0.63244        2.16083
P          1.91488        0.16796        0.28120
O          0.86566       -0.99135       -0.26428
O          1.72566        1.30927       -0.83045
O          3.29003       -0.51807       -0.21513
N         -1.10312        0.19706        0.02778
N         -3.19608       -0.90574       -0.11423
C         -3.15154        1.50364        0.29315
C         -2.44379        0.18249        0.06279
C         -2.93319        2.44517       -0.90380
C         -2.71326        2.15280        1.61573
C         -0.49431       -0.95152       -0.19581
C         -2.57607       -2.07567       -0.34269
C         -1.18275       -2.15108       -0.39296
C         -3.43526       -3.29531       -0.54442
C          2.12098        2.68457       -0.62702
C          3.92895       -1.58421        0.51906
C          1.46020        3.52659       -1.69846
C          5.27060       -1.86341       -0.12781
H         -4.22106        1.25907        0.35178
H         -1.86982        2.70066       -1.01048
H         -3.50007        3.37717       -0.76488
H         -3.26704        1.98016       -1.84250
H         -2.91479        1.49176        2.47055
H         -3.26067        3.09329        1.77396
H         -1.63668        2.37195        1.60561
H         -0.65076       -3.08444       -0.56976
H         -3.21048       -4.06150        0.21282
H         -4.49332       -3.02137       -0.47097
H         -3.24839       -3.74392       -1.53166
H          1.81117        2.99425        0.38076
H          3.21799        2.74314       -0.68940
H          4.04113       -1.27070        1.56688
H          3.27742       -2.47063        0.48609
H          1.74219        4.58035       -1.56161
H          1.77645        3.20664       -2.70039
H          0.36775        3.44431       -1.63141
H          5.77248       -2.68259        0.40654
H          5.14338       -2.15759       -1.17850
H          5.91355       -0.97370       -0.08601
