21
DIBENZOFURAN.gamout	Energy:    -536.6438262
C          1.04285        2.03582        0.08311
C          2.04574        1.06127        0.06758
C          3.35944        1.51660        0.05641
C          1.35538        3.40821        0.08716
C          2.68107        3.84389        0.07568
C          3.70367        2.88468        0.05996
C          5.15739        2.91618        0.04500
C          6.13878        3.91795        0.03996
C          5.55912        1.56406        0.03404
C          7.48187        3.53868        0.02446
C          7.85180        2.18088        0.01400
C          6.89088        1.16486        0.01856
O          4.47696        0.71949        0.04075
H         -0.00316        1.72490        0.09233
H          1.81700       -0.00442        0.06436
H          0.54730        4.14118        0.09941
H          2.91507        4.90959        0.07893
H          5.86076        4.97291        0.04811
H          8.25847        4.30501        0.02044
H          8.90997        1.91426        0.00208
H          7.16417        0.10980        0.01052
