6
DIBROMOACETONITRILE.gamout	Energy:   -5278.8282642
Br         1.31349       -1.63424       -0.22026
Br         1.31436        1.63462       -0.22022
N         -2.09182       -0.00312       -0.16672
C          0.44706        0.00038        0.43417
C         -0.96212        0.00065        0.08792
H          0.57938        0.00036        1.52062
