5
DIBROMOMETHANE.gamout	Energy:   -5186.7154987
Br         1.86353       -0.19783        0.00000
Br        -0.80769        1.69105        0.00000
C         -0.08121       -0.11513       -0.00000
H         -0.43390       -0.61329        0.90579
H         -0.43390       -0.61330       -0.90579
