24
DIETHYL_MALEATE.gamout	Energy:    -612.2253123
C          2.49917        1.53196        0.86643
C          2.13367        2.86115        1.43049
O          2.65671        3.09094        2.64369
O          1.40355        3.63368        0.84704
C          3.56122        0.77093        1.16599
C          2.36324        4.35900        3.27172
C          4.65105        1.04569        2.15522
C          1.05565        4.30997        4.04363
O          5.32436        2.17042        1.89314
O          4.92299        0.27852        3.05028
C          6.39654        2.51854        2.79559
C          7.05601        3.77766        2.27282
H          1.79285        1.18439        0.11090
H          3.65382       -0.20794        0.68873
H          2.34284        5.13577        2.49664
H          3.21488        4.53342        3.94070
H          0.20666        4.15432        3.36562
H          1.07401        3.50015        4.78617
H          0.90514        5.26304        4.57159
H          5.96907        2.66030        3.79861
H          7.09701        1.67362        2.84779
H          7.87412        4.07090        2.94516
H          7.47187        3.61418        1.26913
H          6.33518        4.60516        2.21905
