16
DIETHYL_KETONE.gamout	Energy:    -271.4302046
C          0.68895        0.03408       -2.25557
C          0.45596        0.94605       -1.05884
C          0.66592        2.42142       -1.36186
C          0.44375        3.38962       -0.21084
O          0.99367        2.80554       -2.46558
C          0.68864        4.84688       -0.57787
H          0.52600       -1.01667       -1.98133
H          0.00971        0.29054       -3.07937
H          1.71409        0.14253       -2.63386
H          1.12045        0.68136       -0.21808
H         -0.56585        0.82994       -0.65796
H          1.09375        3.07194        0.62278
H         -0.58495        3.23666        0.15899
H          0.51697        5.49924        0.28843
H          0.02159        5.16197       -1.39130
H          1.71918        4.99185       -0.92826
