18
DIETHYL_CARBONATE.gamout	Energy:    -421.7273246
O          5.21172        2.76987        1.01681
C          3.89757        3.00405        1.05000
O          3.17415        1.87131        0.99089
O          3.43717        4.11392        1.12510
C          5.73349        1.42715        0.93164
C          1.73908        2.02838        1.02257
C          7.24544        1.52555        0.93020
C          1.11530        0.65088        0.93810
H          5.36768        0.84358        1.78819
H          5.35597        0.95494        0.01390
H          1.44001        2.66902        0.18154
H          1.46681        2.54891        1.95097
H          7.59937        2.09810        0.06209
H          7.60239        2.01949        1.84413
H          7.67963        0.51705        0.88457
H          0.02111        0.74141        0.98417
H          1.38149        0.15367       -0.00507
H          1.44527        0.01770        1.77348
