5
DIFLUOROMETHANE.gamout	Energy:    -238.7250448
F         -0.03787        0.01561        1.32559
C          0.74915        0.97792        0.76897
F          1.82240        0.37674        0.18420
H          1.11050        1.64309        1.56701
H          0.17014        1.49873       -0.00773
