4
DIFLUOROAMINE.gamout	Energy:    -254.6187795
F          0.11240       29.95772        0.10029
N          1.20106       29.16418       -0.26364
H          1.19598       28.47747        0.50497
F          2.30657       29.93614        0.09630
