28
DIISOBUTYL_KETONE.gamout	Energy:    -428.4653469
C          4.74487        2.48491        2.67779
C          3.56897        3.43508        2.49666
C          5.36855        1.94585        1.38346
C          2.70579        3.67685        3.72891
O          3.33136        3.96860        1.43185
C          6.73262        1.30335        1.66575
C          4.42480        0.96960        0.66859
C          1.80932        4.92063        3.66914
C          2.63548        6.21081        3.75780
C          0.72832        4.87285        4.75660
H          4.43646        1.65842        3.34175
H          5.49580        3.04948        3.26071
H          5.52662        2.80923        0.71803
H          2.09091        2.76507        3.84256
H          3.35264        3.69587        4.62327
H          7.19268        0.93382        0.73806
H          6.63631        0.44674        2.35264
H          7.42872        2.02249        2.12321
H          3.47444        1.45264        0.40583
H          4.20608        0.09796        1.30716
H          4.87960        0.59558       -0.25989
H          1.31216        4.90780        2.68668
H          3.38726        6.26157        2.95866
H          3.15682        6.27593        4.72693
H          1.99051        7.09641        3.66651
H          1.17475        4.86184        5.76400
H          0.09709        3.97688        4.65858
H          0.07338        5.75369        4.69345
