24
DIISOPROPANOLAMINE.gamout	Energy:    -442.2996432
O          0.03643       27.67533        0.74795
C          1.27039       27.28291        0.14648
C          1.91501       28.58400       -0.33739
C          2.14332       26.50091        1.12597
N          3.16314       28.34969       -1.05018
C          3.69016       29.52338       -1.73164
O          5.20810       30.39627       -3.30395
C          4.90073       29.18920       -2.60551
C          6.10421       28.68657       -1.81002
H         -0.43797       26.89760        1.06054
H          1.07169       26.65628       -0.74176
H          1.20926       29.07094       -1.02521
H          2.02904       29.26499        0.53212
H          3.06561       26.14945        0.64022
H          1.61312       25.60899        1.49313
H          2.40506       27.12473        1.99365
H          3.85971       27.97267       -0.41373
H          2.90448       29.92251       -2.38885
H          3.97335       30.34525       -1.03990
H          5.94882       30.24890       -3.90162
H          4.58672       28.41015       -3.32363
H          6.96491       28.51467       -2.47387
H          5.88300       27.72909       -1.31535
H          6.39831       29.42613       -1.05042
