22
DIISOPROPYLAMINE.gamout	Energy:    -292.0239253
N         35.15443       29.51906        0.46040
C         33.86689       28.88121        0.73157
C         36.05457       28.91800       -0.52910
C         33.23522       29.54604        1.95759
C         32.88477       28.85591       -0.45522
C         36.02538       29.63245       -1.89021
C         37.48531       28.85312        0.02590
H         35.05054       30.52013        0.31534
H         34.09461       27.83441        0.99723
H         35.71337       27.88073       -0.68156
H         32.29937       29.04526        2.24361
H         33.92797       29.51783        2.80888
H         32.99550       30.60102        1.74691
H         31.94633       28.35372       -0.17473
H         33.30408       28.31645       -1.31557
H         32.63732       29.87977       -0.77736
H         36.70131       29.14677       -2.60971
H         35.01515       29.64345       -2.32009
H         36.35997       30.67661       -1.77815
H         38.16806       28.35742       -0.68127
H         37.50053       28.30328        0.97606
H         37.87006       29.86673        0.21708
