9
DIMETHYL_SULFIDE.gamout	Energy:    -477.7297978
C          0.79537        0.90420        2.31456
S          2.21622        0.32948        1.32804
C          2.77567        1.92233        0.64142
H          0.35890        0.01918        2.79594
H          0.03261        1.37356        1.67617
H          1.11210        1.61186        3.09463
H          3.64913        1.71155        0.01070
H          3.07372        2.61642        1.44070
H          1.99348        2.38433        0.02146
