24
DIMETHYL_PHTHALATE.gamout	Energy:    -687.1594370
O          5.90128        3.46454        1.18179
C          5.38930        4.67444        1.44412
O          6.02344        5.70277        1.39896
C          3.90840        4.62193        1.69651
C          7.32099        3.39458        1.00745
C          3.29801        3.73834        2.61293
C          3.11139        5.49410        0.94592
C          4.12631        2.92364        3.55692
C          1.89908        3.72008        2.72070
C          1.72051        5.47234        1.06657
O          3.47887        1.82670        3.99054
O          5.23658        3.22594        3.93232
C          1.11250        4.57732        1.94945
C          4.16719        1.02236        4.95530
H          7.64250        4.05900        0.19553
H          7.53982        2.35063        0.76320
H          7.82484        3.68567        1.93844
H          3.59641        6.18633        0.25762
H          1.43449        3.03938        3.43219
H          1.11411        6.15453        0.46868
H          0.02642        4.55357        2.04907
H          3.48962        0.19674        5.19276
H          4.39033        1.61148        5.85430
H          5.10719        0.64224        4.53506
