24
DIMETHYL_TEREPHTHALATE.gamout	Energy:    -687.1709000
O          1.47302        1.16987        7.59411
C          1.66668        2.35136        6.98094
O          1.15938        3.38399        7.36063
C          2.56925        2.24325        5.79320
C          0.62019        1.17996        8.74478
C          2.84871        3.41090        5.06645
C          3.13630        1.02184        5.39256
C          3.68379        3.36317        3.95312
C          3.97131        0.97409        4.27918
C          4.25083        2.14176        3.55249
C          5.15325        2.03361        2.36460
O          5.34712        3.21514        1.75160
O          5.66028        1.00091        1.98473
C          6.19970        3.20500        0.60073
H         -0.38188        1.53720        8.47365
H          0.57997        0.14395        9.09489
H          1.03550        1.83555        9.52144
H          2.40025        4.34945        5.39124
H          2.91921        0.11688        5.95684
H          3.90099        4.26817        3.38892
H          4.41965        0.03552        3.95430
H          6.23947        4.24091        0.25028
H          7.20195        2.84820        0.87176
H          5.78447        2.54897       -0.17561
