10
DIMETHYLAMINE.gamout	Energy:    -134.9837263
C          0.89979        1.07876        1.48979
N          2.09464        1.75837        1.02423
C          3.33379        1.17907        1.50967
H          0.83135        1.16532        2.58570
H          0.00676        1.55399        1.06108
H          0.87051       -0.00455        1.24110
H          2.10033        1.82464        0.01084
H          4.19130        1.72685        1.09540
H          3.37691        1.26939        2.60655
H          3.45478        0.10253        1.26044
