12
DIMETHYL_CARBONATE.gamout	Energy:    -343.2037459
O          0.76107       -0.37232        0.59731
C         -0.23970        0.42039        1.24583
C          1.74188        0.30288       -0.00640
O          1.84773        1.50629       -0.04860
O          2.58630       -0.57341       -0.55556
C          3.70669       -0.01402       -1.24982
H         -0.99115       -0.28907        1.60579
H         -0.68643        1.13130        0.53874
H          0.19843        0.97393        2.08732
H          4.23825       -0.86450       -1.68770
H          4.35780        0.52704       -0.55001
H          3.36866        0.67469       -2.03498
