20
DIMETHYL_SUCCINATE.gamout	Energy:    -534.9321185
C          6.72995        4.84592        3.21127
C          7.21410        4.16534        4.47466
O          6.50782        3.04987        4.73158
O          8.12911        4.54459        5.16819
C          7.25224        6.27898        3.08646
C          6.90818        2.28943        5.87938
C          6.92705        6.95898        1.77355
O          7.14126        6.15228        0.71475
O          6.54740        8.10119        1.66399
C          6.91919        6.72271       -0.58185
H          5.63129        4.80912        3.18976
H          7.07115        4.23457        2.36187
H          8.34844        6.27400        3.19425
H          6.86138        6.91682        3.88810
H          6.25088        1.41491        5.90324
H          6.78949        2.88775        6.79226
H          7.95824        1.98248        5.78790
H          7.56630        7.59669       -0.72922
H          7.16387        5.93425       -1.30050
H          5.87070        7.02955       -0.68899
