22
DIMETHYL_PHENYL_CARBINOL.gamout	Energy:    -424.8594575
C          7.31669        3.95046        0.21935
C          7.21477        3.02975       -1.00534
C          6.74512        3.81434       -2.24235
O          8.55459        2.57532       -1.23324
C          6.28808        1.84113       -0.69461
C          6.82371        0.60916       -0.28915
C          4.88987        1.96180       -0.77224
C          5.99097       -0.47119        0.01981
C          4.05617        0.88521       -0.46027
C          4.60318       -0.33967       -0.06669
H          7.71149        3.39218        1.07804
H          6.33014        4.35134        0.48668
H          7.99596        4.78601        0.00024
H          6.65643        3.14947       -3.11414
H          5.76990        4.29248       -2.08255
H          7.47720        4.59996       -2.47126
H          8.57018        2.00151       -2.00855
H          7.90460        0.50047       -0.20637
H          4.43539        2.90490       -1.07647
H          6.43230       -1.41976        0.33178
H          2.97322        1.00386       -0.52965
H          3.95271       -1.18256        0.17296
