17
DIMETHYL_MALONATE.gamout	Energy:    -495.6575717
C          3.84390        0.74578        1.46516
C          3.09729        2.04373        1.15755
C          5.28572        1.02857        1.84428
O          1.76121        1.95533        0.98430
O          3.64084        3.11015        1.05255
O          6.07961        1.05782        0.76695
O          5.66711        1.19496        2.97678
C          1.04618        0.72611        1.10807
C          7.45671        1.39052        0.99447
H          3.80721        0.10019        0.57491
H          3.36940        0.21461        2.30040
H          1.43931       -0.04126        0.42580
H          1.06917        0.35525        2.14319
H          0.01242        0.95506        0.83158
H          7.92072        0.65235        1.66144
H          7.93199        1.37708        0.00908
H          7.53251        2.38648        1.44929
