24
DIPHENYLAMINE.gamout	Energy:    -517.9818206
C          0.44839       -1.33474        0.40427
C          1.05245       -2.60393        0.29514
C         -0.86605       -1.25867        0.90516
N          1.20112       -0.20717        0.06199
C          0.36390       -3.75688        0.66852
C         -0.94908       -3.67880        1.14547
C         -1.55122       -2.42243        1.25976
C          1.31552        3.43145       -0.58207
C          1.66829        2.14823       -0.16739
C          0.06057        3.67635       -1.14970
C          0.77652        1.06756       -0.32521
C         -0.47793        1.31469       -0.91644
C         -0.82605        2.60784       -1.31197
H          2.07077       -2.67855       -0.09390
H         -1.34190       -0.28911        1.04133
H          2.20308       -0.33319        0.09605
H          0.85635       -4.72696        0.57530
H         -1.49148       -4.58207        1.42744
H         -2.56919       -2.33894        1.64638
H          2.02645        4.24962       -0.44991
H          2.64399        1.97204        0.29175
H         -0.21949        4.68245       -1.46432
H         -1.17007        0.49268       -1.09108
H         -1.80370        2.77527       -1.76897
