11
DMA+1.gamout	Energy:    -135.3487321
C         -5.75956        0.77035        0.01998
C         -3.23382        0.70525        0.09730
N         -4.49788        0.09666       -0.44120
H         -5.73161        1.81682       -0.30233
H         -5.80371        0.71239        1.11291
H         -6.61733        0.25559       -0.42563
H         -4.53197       -0.89594       -0.17931
H         -3.26264        0.65395        1.19104
H         -3.18379        1.74912       -0.23118
H         -2.37855        0.14157       -0.28988
H         -4.46554        0.10645       -1.46770
