21
DMPYR+1.gamout	Energy:    -291.1870259
N          0.67539       -0.00016       -0.00017
C         -0.25336        1.09107       -0.55810
C         -0.25337       -1.09125        0.55841
C         -1.63855        0.76684       -0.01299
C         -1.63887       -0.76612        0.01437
C          1.54084        0.54969        1.08919
C          1.53886       -0.55028       -1.09072
H         -0.22997        1.00794       -1.64950
H          0.14458        2.07004       -0.27335
H         -0.22893       -1.00834        1.64978
H          0.14381       -2.07029        0.27292
H         -2.42481        1.18921       -0.64885
H         -1.77460        1.17843        0.99834
H         -2.42481       -1.18800        0.65088
H         -1.77598       -1.17766       -0.99685
H          2.22683        1.29010        0.66580
H          0.90452        1.01737        1.84618
H          2.11093       -0.27010        1.53771
H          0.90138       -1.01796       -1.84670
H          2.10853        0.26925       -1.54020
H          2.22517       -1.29059       -0.66804
