37
DODECANOATE-1.gamout	Energy:    -620.8483140
O          7.06437       -0.63201       -0.04094
O          5.99000        1.35528       -0.18582
C         -1.71229        0.37951       -0.02444
C         -0.45393       -0.49053        0.03367
C         -3.01717       -0.41690        0.03296
C          0.85348        0.30058       -0.04798
C         -4.27251        0.45849       -0.00589
C          2.11191       -0.57048        0.02774
C         -5.58213       -0.33371        0.03148
C          3.42430        0.21565       -0.07711
C         -6.83653        0.54512        0.00383
C          4.67861       -0.65487        0.00900
C         -8.14234       -0.25134        0.03160
C          6.04770        0.10481       -0.08370
H         -1.69632        0.98303       -0.94878
H         -1.69134        1.10487        0.80784
H         -0.46625       -1.08087        0.96684
H         -0.48625       -1.22838       -0.78768
H         -3.04337       -1.13163       -0.80844
H         -3.02894       -1.03171        0.95025
H          0.86567        0.87972       -0.98834
H          0.87697        1.04933        0.76382
H         -4.25118        1.08327       -0.91606
H         -4.24806        1.16340        0.84375
H          2.07141       -1.32960       -0.77539
H          2.09614       -1.13907        0.97556
H         -5.60799       -1.03205       -0.82370
H         -5.59942       -0.96523        0.93745
H          3.44344        0.78147       -1.02309
H          3.46497        0.98318        0.71352
H         -6.81261        1.18058       -0.89812
H         -6.80959        1.23848        0.86194
H          4.68515       -1.22035        0.95827
H          4.67227       -1.42121       -0.78680
H         -8.20982       -0.87237        0.93887
H         -9.02027        0.41161        0.01354
H         -8.21438       -0.92597       -0.83622
