49
DODMIM+1.gamout	Energy:    -736.6760989
C          2.56748        3.15525        3.19032
N          1.68439        2.92040        2.04697
H          3.34855        3.87109        2.90562
H          3.03003        2.21150        3.50339
H          1.98371        3.56676        4.01951
C          0.37049        3.16995        1.99656
N         -0.08685        2.85493        0.77966
H         -0.22513        3.57428        2.80931
C          2.08243        2.42786        0.82202
C         -1.47042        3.07190        0.30269
C         -2.13420        1.82703       -0.29468
H         -1.42891        3.87565       -0.44520
H         -2.03646        3.45084        1.16278
C         -3.53098        2.16907       -0.84850
H         -2.19016        1.03241        0.46346
H         -1.51177        1.44277       -1.11760
C         -4.12985        1.17621       -1.86625
H         -3.45892        3.14616       -1.35580
H         -4.23783        2.31774       -0.01447
C         -4.81475       -0.10256       -1.34879
H         -3.35925        0.90713       -2.60975
H         -4.88740        1.74047       -2.42811
C         -3.92242       -1.24278       -0.82617
H         -5.41155       -0.50133       -2.18607
H         -5.55380        0.16452       -0.57414
C         -4.70408       -2.56488       -0.71427
H         -3.06390       -1.37395       -1.50530
H         -3.49825       -0.98594        0.15975
C         -4.01788       -3.76238       -0.03332
H         -5.02323       -2.86360       -1.72788
H         -5.63868       -2.36347       -0.16383
C         -2.78359       -4.37218       -0.72973
H         -3.75390       -3.50113        1.00678
H         -4.78185       -4.55015        0.05093
C         -1.43700       -3.71498       -0.39360
H         -2.93638       -4.37352       -1.82247
H         -2.71986       -5.43302       -0.43922
C         -0.21291       -4.46822       -0.92889
H         -1.35008       -3.63813        0.70490
H         -1.41710       -2.67953       -0.77165
C          1.11370       -3.82412       -0.51852
H         -0.26361       -4.54056       -2.02885
H         -0.24538       -5.50431       -0.55679
H          1.22817       -2.81618       -0.94894
H          1.96790       -4.42475       -0.85863
H          1.18009       -3.73271        0.57723
C          0.97209        2.38963        0.02715
H          0.86794        2.07988       -1.00545
H          3.11315        2.15681        0.61616
