23
DPA+1.gamout	Energy:    -292.4019626
C         -5.66283        1.67180       -0.01545
C         -4.34461        2.41946        0.21655
H         -5.75179        1.32377       -1.05508
H         -6.51151        2.33622        0.18813
H         -5.75486        0.79925        0.64786
C         -3.13104        1.53655       -0.05188
H         -4.30686        2.78546        1.25609
H         -4.30458        3.30439       -0.44013
C         -0.56457        1.53057       -0.07063
C          0.65618        2.40779        0.18182
C          1.96806        1.65768       -0.07630
H          2.03994        1.31755       -1.11987
H          2.06850        0.77972        0.57876
H          2.82165        2.31825        0.11892
H          0.63627        2.76840        1.22366
H          0.60806        3.29645       -0.46940
N         -1.84437        2.29462        0.18511
H         -0.58414        0.65383        0.58928
H         -0.61320        1.18150       -1.11023
H         -1.83683        2.64144        1.15203
H         -3.09915        1.18615       -1.09166
H         -3.10649        0.66029        0.60857
H         -1.84655        3.13826       -0.40045
