19
EMIM+1.gamout	Energy:    -344.0967270
C         -0.20643       -0.32206        0.13834
C          1.31841       -0.33771        0.11499
N          1.89385        1.02199        0.12888
H          1.70108       -0.84060       -0.78178
H          1.73031       -0.86278        0.98590
C          2.20963        1.74890       -0.94864
C          2.59226        2.99747        0.82974
C          2.12571        1.78474        1.25406
C          3.07121        4.05001       -1.41610
H          1.95114        1.40636        2.25523
N          2.63688        2.95261       -0.54865
H          2.13775        1.41482       -1.97973
H          2.89994        3.87479        1.38857
H          3.13461        3.69254       -2.44876
H          4.05843        4.39941       -1.09086
H          2.34964        4.87479       -1.35801
H         -0.60720        0.22608       -0.72603
H         -0.59383        0.13766        1.05797
H         -0.57689       -1.35441        0.09247
