21
EMPY+1.gamout	Energy:    -366.1230473
C         -3.45531        1.76185        0.01602
C         -3.26274        0.25945        0.06620
H         -3.06366        2.20378       -0.91063
H         -3.01200        2.27053        0.88317
H         -4.53439        1.95559        0.04064
N         -1.83790       -0.21194        0.03873
H         -3.75422       -0.22375       -0.78809
H         -3.69894       -0.15871        0.98275
C         -1.63248       -1.54676        0.05581
C         -0.79772        0.64681        0.00067
C         -0.34689       -2.05633        0.03588
H         -2.51967       -2.17756        0.08672
C          0.52509        0.20638       -0.02695
H         -1.04167        1.70386       -0.00827
C          0.73623       -1.17876       -0.00713
H         -0.20440       -3.13510        0.05128
H          1.75433       -1.57272       -0.02563
C          1.66239        1.18720       -0.07778
H          1.31077        2.22522       -0.07728
H          2.26703        1.03228       -0.98355
H          2.32865        1.05181        0.78715
