19
ETHOXYETHYLSULFATE-1.gamout	Energy:    -931.3661842
O         -2.40259        0.58429        2.46075
C         -3.39193        1.30217        3.14949
C         -1.16222        1.26423        2.35448
C         -0.19324        0.38276        1.58288
H         -0.75603        1.48094        3.36063
H         -1.29872        2.22837        1.82884
O          1.03721        1.07234        1.50718
H         -0.07184       -0.58179        2.10407
H         -0.59150        0.18264        0.57398
S          2.27124        0.23964        0.62978
O          2.44370       -1.03670        1.37673
O          3.38638        1.20552        0.74698
O          1.69163        0.07180       -0.73265
C         -4.66599        0.47734        3.17166
H         -3.05595        1.52486        4.18347
H         -3.57113        2.27943        2.65509
H         -4.48695       -0.48799        3.66637
H         -5.00937        0.27815        2.14656
H         -5.46459        1.00630        3.71379
