24
ETHYLCYCLOHEXANE.gamout	Energy:    -314.0680066
C          0.41270        4.79751        1.94460
C          1.93270        4.70502        1.78438
C          2.53193        3.31404        2.05505
C          4.06796        3.37926        2.14126
C          2.10800        2.26916        1.00497
C          4.71004        2.00897        2.39462
C          2.74089        0.89415        1.25846
C          4.26995        0.97553        1.34967
H          0.10637        4.52464        2.96620
H          0.05722        5.82002        1.75117
H         -0.11570        4.13029        1.24868
H          2.21765        5.01828        0.76516
H          2.40748        5.42850        2.46744
H          2.15544        2.96843        3.03681
H          4.45708        3.79082        1.19260
H          4.36542        4.08704        2.93108
H          1.01298        2.16966        0.98449
H          2.40746        2.63214        0.00514
H          5.80687        2.10497        2.40041
H          4.42301        1.65365        3.39967
H          2.34423        0.48689        2.20486
H          2.44068        0.18981        0.46740
H          4.67843        1.26050        0.36438
H          4.69034       -0.01394        1.58788
