18
ETHYL_CARBONATE.gamout	Energy:    -421.7273270
O          5.20227        2.78112        1.02321
C          3.88650        3.00754        1.05360
O          3.16960        1.87090        0.99375
O          3.42005        4.11510        1.12725
C          5.73140        1.44111        0.93634
C          1.73345        2.02017        1.02105
C          7.24256        1.54980        0.92740
C          1.11924        0.63842        0.93821
H          5.37337        0.85771        1.79625
H          5.35235        0.96660        0.02059
H          1.43379        2.65661        0.17711
H          1.45660        2.54101        1.94788
H          7.58638        2.13855        0.06598
H          7.60198        2.03402        1.84566
H          7.68460        0.54573        0.86414
H          0.02377        0.72193        0.95873
H          1.41041        0.13283        0.00686
H          1.43486        0.01578        1.78702
