29
ETHYL_HEPTANOATE.gamout	Energy:    -503.5987546
C          1.27222       -0.02029        0.03962
C          0.56230        0.31769        1.35978
O          1.19228        0.61248        2.51737
O         -0.64535        0.32324        1.37103
C          2.78817       -0.08238       -0.17186
C          2.60340        0.68028        2.77004
C          3.13365       -0.44568       -1.62149
C          2.77985        1.05570        4.22938
C          4.63995       -0.51884       -1.88546
C          4.99422       -0.87558       -3.33250
C          6.49989       -0.94510       -3.59351
H          0.83808        0.69842       -0.67391
H          0.82755       -0.98698       -0.24671
H          3.24662       -0.82782        0.49458
H          3.25701        0.88422        0.06477
H          3.06290        1.43512        2.11786
H          3.06913       -0.29237        2.56190
H          2.68011        0.29599       -2.30088
H          2.66970       -1.41386       -1.87667
H          2.31345        2.02741        4.43783
H          3.85045        1.12047        4.47010
H          2.31877        0.30218        4.88133
H          5.09354       -1.26102       -1.20549
H          5.10165        0.45072       -1.62774
H          4.53747       -0.13282       -4.00811
H          4.53051       -1.84299       -3.58981
H          6.98476        0.01997       -3.37924
H          6.71406       -1.20153       -4.64095
H          6.97853       -1.70563       -2.95734
