19
ETHYL_N-PROPYL_KETONE.gamout	Energy:    -310.6886466
C         -0.80085       -0.57632        0.00000
C         -1.98847        0.38517        0.00000
C         -3.33952       -0.33291       -0.00000
C          0.56405        0.09982        0.00000
O          0.68138        1.30826        0.00000
C          1.77567       -0.82341        0.00000
C          3.11908       -0.10163       -0.00000
H         -0.84288       -1.25000        0.87484
H         -0.84288       -1.25000       -0.87484
H         -1.90993        1.04658        0.87564
H         -1.90993        1.04658       -0.87563
H         -4.16863        0.38903       -0.00000
H         -3.45416       -0.97334       -0.88849
H         -3.45416       -0.97335        0.88848
H          1.68262       -1.49150        0.87397
H          1.68262       -1.49150       -0.87396
H          3.94512       -0.82633       -0.00000
H          3.21987        0.54126       -0.88460
H          3.21987        0.54127        0.88459
