20
ETHYLIDENE_DIACETATE.gamout	Energy:    -534.9480332
O         68.97797       29.83404        0.14739
C         67.62224       29.42848        0.04644
C         69.93552       28.91557       -0.16002
O         67.35808       28.63310        1.20885
C         66.75789       30.66829        0.02658
C         71.31240       29.49231        0.02927
O         69.68149       27.79837       -0.53269
C         66.47090       27.61546        1.08728
C         66.44393       26.76644        2.33030
O         65.80152       27.43777        0.09871
H         67.48365       28.79743       -0.83858
H         65.70361       30.37645       -0.05250
H         67.01971       31.29071       -0.83917
H         66.90859       31.24821        0.94642
H         71.41828       30.41757       -0.55406
H         71.45997       29.75291        1.08726
H         72.06166       28.75871       -0.28279
H         66.34336       27.39765        3.22348
H         65.61512       26.05476        2.26770
H         67.39521       26.22105        2.41442
