18
ETHYL_METHACRYLATE.gamout	Energy:    -384.6215665
C          0.02980        1.42193       -0.75845
C          1.10915        0.89479       -0.15975
C          1.13157       -0.46742        0.47991
C          2.40141        1.65215       -0.08402
O          3.39422        1.21072        0.45687
O          2.35648        2.85928       -0.67591
C          3.55261        3.66504       -0.64907
C          3.65903        4.47341        0.63374
H          0.05496        2.41320       -1.20844
H         -0.90827        0.86659       -0.80880
H          0.15504       -0.95806        0.38441
H          1.89950       -1.10463        0.01640
H          1.39359       -0.39482        1.54601
H          4.42263        3.00799       -0.77695
H          3.45856        4.31917       -1.52494
H          4.53916        5.13132        0.58140
H          2.76624        5.09874        0.77474
H          3.77380        3.81364        1.50355
