15
ETHYL_CYANOACETATE.gamout	Energy:    -399.4361392
C         -0.35948        0.19919       -0.08463
C          1.11364        0.53253       -0.20267
O          1.27831        1.91630        0.17861
C          2.44154        2.57562        0.13005
O          2.49838        3.74154        0.41526
C          3.70245        1.81260       -0.33186
C          4.13644        0.75464        0.58076
N          4.47730       -0.08194        1.30460
H         -0.52264       -0.84927       -0.36907
H         -0.70567        0.33826        0.94781
H         -0.95874        0.84025       -0.74435
H          1.46264        0.39899       -1.23798
H          1.71718       -0.10212        0.46002
H          3.53931        1.37539       -1.32959
H          4.49875        2.56235       -0.41677
