29
ETHYL_GLUTARATE.gamout	Energy:    -652.7174030
C         69.89041       30.04347       -0.19503
C         68.60845       29.25550       -0.37358
O         68.86768       27.94760       -0.56982
O         67.49317       29.72054       -0.34886
C         69.66247       31.54181       -0.00384
C         67.74477       27.05698       -0.74640
C         70.97543       32.29887        0.18350
C         67.19314       26.58012        0.58698
C         70.79471       33.79081        0.37668
O         71.98340       34.40117        0.55301
O         69.73604       34.37359        0.37915
C         71.98504       35.83215        0.74396
C         71.99536       36.57430       -0.58265
H         70.42762       29.60637        0.66306
H         70.52839       29.84072       -1.07086
H         69.11705       31.94682       -0.86722
H         69.00805       31.71014        0.86227
H         66.97439       27.57436       -1.33234
H         68.14781       26.22262       -1.33334
H         71.53805       31.92133        1.05309
H         71.64795       32.16019       -0.67912
H         66.39111       25.84774        0.41375
H         67.97954       26.09691        1.18333
H         66.77483       27.41851        1.15878
H         71.11035       36.10787        1.34680
H         72.89842       36.03049        1.31798
H         72.07684       37.65563       -0.39909
H         72.85214       36.26188       -1.19580
H         71.06922       36.39018       -1.14230
