20
ETHYL_N-BUTYRATE.gamout	Energy:    -385.8438982
C          5.10860        2.86541        1.84491
C          3.60689        2.92335        1.67302
O          2.99460        1.94001        2.36407
O          3.01184        3.73311        0.99866
C          5.74288        1.63640        1.16772
C          1.55765        1.84302        2.27116
C          7.26378        1.60226        1.32760
C          1.12577        1.04427        1.05255
H          5.51904        3.79140        1.42136
H          5.33507        2.84576        2.92267
H          5.30014        0.72459        1.59514
H          5.48331        1.64222        0.09706
H          1.13816        2.85735        2.25009
H          1.25761        1.34460        3.20129
H          7.69251        0.71794        0.83500
H          7.73137        2.49430        0.88350
H          7.54984        1.56724        2.39012
H          1.58267        0.04451        1.06077
H          0.03226        0.92572        1.05763
H          1.41100        1.55951        0.12605
