11
ETHYL_CHLOROFORMATE.gamout	Energy:    -727.4698030
O          3.14585        1.75146        1.97623
C          2.10614        2.50518        1.29962
C          0.72699        1.96271        1.62356
C          3.71482        0.64502        1.54564
Cl         3.20281        0.11449       -0.11807
O          4.51463        0.01147        2.14981
H          2.23812        3.51917        1.69487
H          2.31081        2.51358        0.22292
H          0.56734        1.93692        2.70998
H         -0.03340        2.61894        1.17509
H          0.59083        0.95175        1.21767
