19
ETHYLAL.gamout	Energy:    -347.7495216
O         -1.08599        0.46313        0.46092
O          1.07812        0.47374       -0.44516
C         -1.76866       -0.25696       -0.56115
C          1.76388       -0.27138        0.55612
C         -0.00319        1.23219        0.01878
C         -2.93659       -0.99788        0.06312
C          2.92831       -0.99895       -0.09022
H         -2.12328        0.45327       -1.33175
H         -1.07490       -0.96016       -1.05085
H          2.12262        0.41959        1.34225
H          1.07150       -0.98525        1.03235
H         -0.29781        1.87380       -0.82908
H          0.29277        1.84856        0.88476
H         -3.48955       -1.55109       -0.70964
H         -2.58105       -1.71432        0.81646
H         -3.62663       -0.29434        0.54951
H          3.48549       -1.56783        0.66802
H          2.56900       -1.70083       -0.85548
H          3.61506       -0.28564       -0.56684
