22
ETHYL_VANILLIN.gamout	Energy:    -573.9276611
C          3.83250        3.14949        1.50953
C          3.20498        4.38653        1.59139
C          3.05327        1.99906        1.22105
O          5.16322        3.04213        1.78709
C          1.81920        4.51345        1.38243
C          1.06197        3.37131        1.08291
C          1.16078        5.83172        1.47188
C          1.67592        2.12290        1.00194
O          3.69536        0.80417        1.18150
C          6.04673        2.72799        0.69745
C          7.46018        2.67377        1.23971
O          1.72228        6.87889        1.72018
H          3.79765        5.27008        1.82922
H         -0.01318        3.46159        0.91677
H          0.05798        5.81156        1.28774
H          1.08715        1.22975        0.77892
H          3.07521        0.08759        1.00345
H          5.75537        1.76459        0.25346
H          5.94486        3.51000       -0.07400
H          7.54794        1.89293        2.00730
H          7.74264        3.63630        1.68727
H          8.16375        2.44521        0.42640
