20
ETHYL_BUTYRATE.gamout	Energy:    -385.8438890
C          5.10530        2.79253        1.91614
C          3.62096        2.88510        1.64367
O          2.91642        2.04147        2.42565
O          3.11391        3.60113        0.81010
C          5.76611        1.68194        1.07631
C          1.49078        1.95913        2.21299
C          7.27913        1.60926        1.28790
C          1.14586        0.94891        1.13073
H          5.54431        3.76626        1.65911
H          5.27050        2.59795        2.98568
H          5.30645        0.71495        1.33366
H          5.54717        1.86244        0.01233
H          1.11548        2.95867        1.95881
H          1.08361        1.65503        3.18528
H          7.72298        0.80867        0.67929
H          7.76471        2.55578        1.00543
H          7.52496        1.40739        2.34170
H          1.54995       -0.04187        1.38175
H          0.05268        0.86452        1.04143
H          1.54501        1.26429        0.15770
