29
ETHYL_OENANTHATE.gamout	Energy:    -503.6206541
C          5.49640        2.59327        1.58886
C          4.37924        1.69656        1.09703
O          3.18362        2.10669        1.56345
O          4.51359        0.73264        0.37932
C          6.88708        2.15852        1.13017
C          2.02538        1.34288        1.17210
C          7.99328        3.08395        1.64979
C          0.80965        1.97106        1.82245
C          9.40580        2.71776        1.17212
C          9.93519        1.37976        1.70253
C         11.37003        1.07968        1.26192
H          5.43350        2.62742        2.68877
H          5.26733        3.61859        1.25406
H          7.06108        1.12500        1.46231
H          6.91353        2.12829        0.02974
H          2.16905        0.29979        1.48798
H          1.95436        1.34824        0.07503
H          7.76960        4.11773        1.33700
H          7.97645        3.09112        2.75400
H         -0.09218        1.40947        1.54166
H          0.90004        1.95751        2.91743
H          0.68471        3.01309        1.49692
H         10.09929        3.51844        1.47869
H          9.42499        2.70547        0.06830
H          9.27872        0.56056        1.37019
H          9.88321        1.38650        2.80474
H         11.44593        1.03590        0.16456
H         12.06545        1.85804        1.61213
H         11.71737        0.11562        1.65969
