14
ETHYLENE_GLYCOL_DINITRATE.gamout	Energy:    -638.4586248
C         69.91113       29.79514        0.47502
C         68.75752       29.46594       -0.47498
O         68.75319       28.07066       -0.80783
O         69.91546       31.19043        0.80783
N         68.10578       27.22135        0.13165
N         70.56289       32.03970       -0.13166
O         68.14390       26.06969       -0.18672
O         67.61076       27.74245        1.10017
O         70.52476       33.19137        0.18667
O         71.05791       31.51856       -1.10015
H         69.77629       29.30279        1.44508
H         70.87371       29.49920        0.04127
H         68.89236       29.95832       -1.44501
H         67.79495       29.76188       -0.04122
