12
ETSO4-1.gamout	Energy:    -777.7225554
S          0.38015        5.43387        2.17693
O          1.54893        5.20138        3.05581
O         -0.00742        4.28977        1.30462
C         -2.17331        5.77089        2.81889
O          0.34149        6.75468        1.48625
O         -0.88342        5.52454        3.34821
C         -3.17168        5.78388        3.96883
H         -3.17641        4.81579        4.49180
H         -4.18697        5.98088        3.58849
H         -2.91474        6.56736        4.69791
H         -2.43407        4.98546        2.08702
H         -2.18153        6.73839        2.28584
