1
F-1.gamout	Energy:     -99.7490400
F          0.99180       -0.09790        0.01860
