5
FLUOROMETHANE.gamout	Energy:    -139.5815741
F         -0.03320        1.62593        0.35224
C          1.14643        1.04269        0.79869
H          0.94558       -0.00765        1.05500
H          1.49697        1.59009        1.68569
H          1.89515        1.10127       -0.00459
