4
FORMALDEHYDE.gamout	Energy:    -114.3675282
O         17.00000       30.01339       -0.00000
C         17.00000       28.81047        0.00000
H         16.05274       28.21962        0.00000
H         17.94727       28.21961        0.00000
