16
GLUTARATE_MONOANION-1.gamout	Energy:    -495.1538205
O          2.98316        1.27492        0.22853
O          2.85755       -0.82549       -0.52735
O         -3.42669        0.35474        0.30982
O         -1.72076        0.70193       -1.13404
C          0.03582       -1.05391        0.22255
C          0.84345        0.23832        0.33522
C         -1.41514       -0.86522        0.67402
C          2.28889        0.12686       -0.03781
C         -2.26987        0.16901       -0.13334
H          0.05285       -1.38253       -0.82673
H          0.51783       -1.84998        0.81589
H          0.36865        0.98477       -0.32802
H          0.79016        0.66691        1.35064
H         -1.94789       -1.82852        0.62146
H         -1.45588       -0.56687        1.73664
H          3.89157        1.11606       -0.06919
