4
H3O+1.gamout	Energy:     -76.6140965
O         -5.86800        3.77459       -0.18533
H         -5.08030        3.24126        0.06243
H         -5.79993        4.72377        0.06094
H         -6.72397        3.35938        0.06206
