5
HCO3-1.gamout	Energy:    -264.1697622
O          1.54847       -0.61632        0.22926
O         -0.59876       -1.26469        0.04058
O         -0.03978        0.92669       -0.20092
C          0.16342       -0.29213        0.00086
H          1.98524        0.24205        0.16342
