12
HEA+1.gamout	Energy:    -210.4828837
N        -19.17681      -12.49798       -2.35228
C        -20.09218      -12.33552       -1.15784
C        -21.37511      -13.14174       -1.34658
H        -19.53935      -12.67528       -0.27401
H        -20.30943      -11.26556       -1.05671
O        -22.11813      -12.89648       -0.18736
H        -21.13240      -14.21549       -1.47081
H        -21.90266      -12.80493       -2.26091
H        -22.95935      -13.36936       -0.19398
H        -18.31175      -11.95518       -2.23782
H        -18.90483      -13.47987       -2.49337
H        -19.62490      -12.17832       -3.22125
