22
HEPTANOATE-1.gamout	Energy:    -424.5545833
O         -3.95637        0.67122       -0.03829
O         -2.90511       -1.33225        0.02561
C          0.99424        0.56636       -0.01584
C          2.24647       -0.31813        0.00823
C         -0.32624       -0.21349       -0.00075
C          3.56523        0.46151       -0.00349
C         -1.57119        0.67365       -0.03055
C          4.80966       -0.43086        0.02309
C         -2.94813       -0.07768       -0.01182
H          1.02845        1.21194       -0.91271
H          1.02364        1.25397        0.84933
H          2.21733       -0.96467        0.90352
H          2.22421       -1.00396       -0.85740
H         -0.36998       -0.85988        0.89106
H         -0.36306       -0.90626       -0.85746
H          3.58937        1.14666        0.86180
H          3.59736        1.10650       -0.89880
H         -1.56338        1.31608       -0.92911
H         -1.56849        1.36925        0.82777
H          5.73719        0.16261        0.01141
H          4.83202       -1.10509       -0.84809
H          4.82566       -1.06075        0.92688
