29
HEXAMETHYLPHOSPHORAMIDE.gamout	Energy:    -819.5774157
P          0.66846       -0.08225        0.14343
O          2.11977       -0.42102        0.33107
N          0.15282        1.52550        0.32786
N         -0.27741       -0.87184        1.30578
N          0.19832       -0.44480       -1.44165
C          0.49306        2.49131       -0.71279
C          0.18142        2.11699        1.66417
C          0.21904       -2.12202        1.86809
C         -1.71457       -0.69289        1.42639
C          1.09062       -1.17487       -2.33004
C         -1.14705       -0.25292       -1.94813
H         -0.23200        3.31994       -0.69719
H          0.46474        2.01965       -1.69969
H          1.50139        2.91831       -0.56372
H         -0.55136        2.93725        1.71727
H         -0.07218        1.37005        2.42238
H          1.17664        2.53026        1.90712
H         -0.02956       -2.17223        2.94072
H          1.30696       -2.16973        1.75701
H         -0.23246       -3.00292        1.37455
H         -2.00750       -0.75928        2.48688
H         -2.01575        0.29054        1.05063
H         -2.28120       -1.46834        0.87738
H          0.70055       -2.18516       -2.54912
H          2.07615       -1.27014       -1.86407
H          1.20209       -0.63895       -3.28886
H         -1.12220        0.27254       -2.91900
H         -1.74265        0.35325       -1.25803
H         -1.66818       -1.21458       -2.10657
