8
HEXAFLUOROETHANE.gamout	Energy:    -674.5515141
C          2.04664        1.01449        0.00012
C          0.48836        1.01451       -0.00012
F          0.03695       -0.24048        0.00000
F          0.03772        1.64172       -1.08715
F          0.03736        1.64209        1.08652
F          2.49805        2.26948       -0.00000
F          2.49728        0.38728        1.08715
F          2.49764        0.38691       -1.08652
