18
HEXANENITRILE.gamout	Energy:    -289.6173184
N          3.60736        0.44379        0.01626
C         -1.27324       -0.40619       -0.01113
C          0.09369        0.28207       -0.02891
C         -2.44405        0.58360       -0.01229
C          1.25928       -0.72557       -0.00342
C         -3.81434       -0.09413        0.03244
C          2.57573       -0.08223        0.00782
H         -1.36128       -1.07331       -0.88608
H         -1.34688       -1.05553        0.87845
H          0.18644        0.91215       -0.92703
H          0.18697        0.95703        0.83578
H         -2.37478        1.21903       -0.91085
H         -2.33839        1.26286        0.84979
H          1.20982       -1.38996       -0.88112
H          1.18534       -1.37358        0.88475
H         -3.92540       -0.70749        0.93973
H         -3.96052       -0.75467       -0.83593
H         -4.62553        0.64779        0.02878
