12
HEXAFLUOROISOPROPANOL.gamout	Energy:    -788.9536616
F         -1.65945       -1.29818       -0.92125
C         -1.53630       -0.40465        0.06261
C         -0.23314        0.42518       -0.02022
C          1.05092       -0.42379       -0.10773
F          1.16272       -1.06018       -1.27567
F          2.12065        0.37347        0.03786
F          1.08577       -1.34013        0.87534
O         -0.23832        1.26136       -1.13609
H         -0.16572        0.97920        0.93227
F         -2.58022        0.45309       -0.02700
F         -1.64023       -1.04338        1.23565
H         -0.92571        1.93252       -1.05190
