12
HEXAFLUOROBENZENE.gamout	Energy:    -826.7116466
F          7.14129        2.87837       -0.94095
C          6.33176        1.85856       -0.67044
F          4.43703        3.21963       -1.03596
C          4.94741        2.03309       -0.71898
F          2.77928        1.12813       -0.48124
C          4.09817        0.96190       -0.43479
F          3.82448       -1.30461        0.16860
C          4.63317       -0.28394       -0.10206
F          6.52784       -1.64514        0.26342
C          6.01737       -0.45851       -0.05350
F          8.18524        0.44599       -0.29111
C          6.86633        0.61265       -0.33768
