16
HEXENE-5-NITRILES.gamout	Energy:    -288.3886567
C         53.93391        8.97621       -0.00953
C         52.57327        8.33606       -0.33132
C         53.86447       10.51579       -0.03053
C         55.14792       11.15401        0.27094
N         56.16990       11.64323        0.51095
C         52.63374        6.83387       -0.36673
C         51.94752        6.01156        0.43148
H         54.27783        8.63843        0.97905
H         54.68773        8.63991       -0.73790
H         52.23147        8.71081       -1.31304
H         51.82443        8.65967        0.40954
H         53.52959       10.86824       -1.01960
H         53.12203       10.87468        0.70064
H         53.31160        6.40281       -1.11334
H         52.04479        4.92764        0.35232
H         51.25947        6.39243        1.19113
