22
HEXYLENE_GLYCOL.gamout	Energy:    -387.0265731
C          3.46938        0.27399        1.99856
C          4.05257        1.63441        1.54960
C          2.39777       -0.34074        1.09309
C          5.10524        2.09643        2.56728
C          4.65207        1.59642        0.14257
O          2.99003        2.60573        1.48162
C          1.45757       -1.27140        1.85923
O          3.08322       -1.05283        0.05518
H          4.28031       -0.46349        2.10606
H          3.04128        0.41752        3.00406
H          1.80618        0.47774        0.64740
H          5.48968        3.08797        2.29246
H          4.67666        2.15831        3.58019
H          5.94961        1.39318        2.60398
H          5.06742        2.58207       -0.10683
H          5.45123        0.84591        0.08310
H          3.89135        1.33688       -0.60170
H          2.68489        2.81128        2.37317
H          0.73961       -1.75012        1.17589
H          0.88104       -0.70738        2.60737
H          2.02216       -2.06292        2.37402
H          2.44249       -1.41705       -0.56537
