30
HPY+1.gamout	Energy:    -483.8949686
C         -1.27536       -1.47806       -0.02239
C          0.15346       -0.97653        0.19484
H         -1.61453       -1.28729       -1.05197
H         -1.98091       -0.98199        0.66141
H         -1.34549       -2.56008        0.15534
C          0.30411        0.53163       -0.02970
H          0.83998       -1.51520       -0.47950
H          0.47616       -1.22400        1.21996
C          1.73815        1.03385        0.18365
H         -0.37840        1.07010        0.64981
H         -0.01802        0.78424       -1.05460
C          1.87877        2.54822       -0.02588
H          2.41342        0.50615       -0.51121
H          2.06978        0.76516        1.20066
C          3.32991        3.01316        0.12348
H          1.25022        3.09621        0.69462
H          1.50969        2.81030       -1.03159
N          3.48812        4.48605       -0.08311
H          3.98863        2.51948       -0.60398
H          3.71585        2.79545        1.12560
C          3.80490        5.29502        0.95033
C          3.94378        6.66272        0.76874
C          3.74933        7.20705       -0.50111
C          3.42497        6.35421       -1.55906
C          3.29938        4.99604       -1.32004
H          3.94644        4.82005        1.91895
H          3.05077        4.28378       -2.10397
H          3.27117        6.73140       -2.56838
H          4.20543        7.28375        1.62258
H          3.84910        8.28042       -0.66659
