3
HYDROGEN_SELENIDE.gamout	Energy:   -2402.3540717
Se        -4.07953        0.00337        2.88939
H         -2.65358       -0.37714        2.89341
H         -3.84286        1.00975        1.83615
