26
INDIGOIDINE.gamout	Energy:    -904.7770257
O         -3.60214        0.40014        0.11100
O          0.22401       -1.97433       -2.57057
O         -3.45351        3.16098       -3.45367
O          0.06515       -4.73402        0.99411
N         -3.45784        1.71396       -1.69287
N          0.07415       -3.28741       -0.76702
N         -1.46112        1.79462       -4.69296
N         -1.92819       -3.36548        2.22942
C         -1.93790       -0.21338       -1.56614
C         -1.44396       -1.35882       -0.89714
C         -1.44203        0.23747       -2.83369
C         -1.94216       -1.80867        0.36980
C         -3.03888        0.60450       -0.95568
C         -0.34227       -2.17772       -1.50531
C         -1.91191        1.34594       -3.49439
C         -1.47463       -2.91741        1.03165
C         -2.99737        2.16580       -2.91039
C         -0.38899       -3.73849        0.44977
H         -0.64575       -0.33877       -3.29357
H         -2.73886       -1.23155        0.82801
H         -4.20335        2.25289       -1.26178
H          0.82010       -3.82703       -1.19646
H         -1.88328        2.62551       -5.08640
H         -0.72323        1.32562       -5.19495
H         -1.50783       -4.19690        2.62366
H         -2.66672       -2.89579        2.72982
