17
ISO-AMYL_BROMIDE.gamout	Energy:   -2770.6251094
Br        60.10494        0.02584       -0.16628
C         58.12589        0.00802       -0.05436
C         57.54811        1.40987        0.04486
C         56.00395        1.43273        0.05992
C         55.41421        0.73346        1.29332
C         55.49835        2.87845       -0.03830
H         57.79589       -0.51177       -0.96130
H         57.90579       -0.60932        0.82162
H         57.92909        1.90370        0.95372
H         57.90713        2.00338       -0.80930
H         55.65268        0.89367       -0.83862
H         54.31587        0.78518        1.28220
H         55.68996       -0.32900        1.34632
H         55.76272        1.21905        2.21894
H         54.39963        2.91023       -0.06798
H         55.87511        3.37726       -0.94345
H         55.82708        3.46841        0.83197
