15
ISO-VALERONITRILE.gamout	Energy:    -250.3594431
C         16.77636        0.14134        0.16218
C         18.24758        0.53420       -0.01487
C         18.40671        2.03410       -0.28652
C         19.05709        0.08445        1.22667
C         20.50039        0.30369        1.10461
N         21.63954        0.48067        0.99515
H         16.19150        0.41815       -0.72572
H         16.66175       -0.94162        0.31682
H         16.33174        0.65626        1.02841
H         18.64946       -0.01731       -0.88063
H         19.45994        2.31177       -0.43002
H         17.85417        2.32105       -1.19209
H         18.00874        2.62820        0.55146
H         18.70250        0.62197        2.12183
H         18.89381       -0.98796        1.41681
