23
ISO-PROPYL_ISO-BUTYRATE.gamout	Energy:    -425.1073427
O         34.20475       29.70176        0.37308
C         35.30397       29.27797       -0.27737
C         36.51647       30.14875        0.02699
O         35.31597       28.32187       -1.02019
C         32.96317       28.96761        0.19251
C         36.30534       31.58905       -0.46734
C         36.87969       30.09845        1.52006
C         32.92604       27.78601        1.15425
C         31.83611       29.96564        0.40868
H         37.32983       29.68988       -0.55254
H         32.95438       28.59898       -0.84226
H         37.22093       32.17716       -0.31027
H         36.06643       31.61445       -1.53997
H         35.48779       32.07727        0.08093
H         37.80066       30.67091        1.70105
H         37.05133       29.06620        1.85649
H         36.07998       30.53425        2.13447
H         31.98278       27.23389        1.03555
H         33.75498       27.09495        0.95585
H         32.99087       28.13594        2.19496
H         30.86647       29.47216        0.25511
H         31.91395       30.80355       -0.29695
H         31.86009       30.36662        1.43222
