23
ISOAMYL_ACETATE.gamout	Energy:    -425.1030807
C          5.66087       -1.45558       -0.12597
C          5.25442       -0.03209       -0.52733
H         -0.41215        1.12122        1.33656
O          1.55832        0.15579        0.30456
H          6.10258        1.98485       -0.50534
H          4.93607       -2.20608       -0.46860
H          6.63668       -1.72121       -0.55701
H          5.74568       -1.54227        0.96913
C          3.92830        0.40456        0.12010
H          6.55064        0.99235        0.90109
H          7.30879        0.68929       -0.67631
O          0.26046       -1.41846       -0.64375
C         -0.76093        0.27057        0.74191
H         -1.47742        0.61184       -0.01777
H         -1.28458       -0.44982        1.38483
C          0.37714       -0.43654        0.05247
H          2.80636       -1.47491        0.04804
H          2.60324       -0.45098       -1.38453
C          2.73001       -0.43369       -0.29195
H          4.02763        0.37745        1.21814
H          3.72146        1.45185       -0.14848
C          6.36538        0.96629       -0.18463
H          5.11559       -0.01343       -1.62323
