27
ISOPROPYLCYCLOHEXANE.gamout	Energy:    -353.3247072
C          1.78084        0.00001        0.30972
C          2.55734       -1.25269       -0.12675
C          2.55734        1.25269       -0.12681
C          0.31509        0.00000       -0.19782
C         -0.46306       -1.25863        0.23875
C         -1.91877       -1.26081       -0.24810
C         -2.67251       -0.00001        0.18784
C         -1.91878        1.26081       -0.24806
C         -0.46306        1.25863        0.23877
H          1.73914        0.00003        1.41487
H          3.59448       -1.20904        0.23578
H          2.11872       -2.18099        0.26054
H          2.59273       -1.32814       -1.22562
H          2.59276        1.32807       -1.22567
H          2.11871        2.18100        0.26042
H          3.59448        1.20906        0.23575
H          0.35481        0.00001       -1.30504
H          0.03544       -2.16501       -0.12956
H         -0.44574       -1.31886        1.34194
H         -1.92881       -1.32536       -1.35006
H         -2.43296       -2.16247        0.11914
H         -3.69260        0.00001       -0.22684
H         -2.78068       -0.00002        1.28660
H         -1.92882        1.32539       -1.35002
H         -2.43296        2.16247        0.11921
H         -0.44571        1.31885        1.34196
H          0.03543        2.16501       -0.12955
