12
ISOPROPANOL.gamout	Energy:    -194.1104750
C          0.61623        1.20142        1.99913
C          2.07180        1.65322        2.10397
C          2.94349        1.09744        0.98690
O          2.18152        3.07704        2.03407
H          0.17682        1.55138        1.05335
H          0.54579        0.10399        2.03377
H          0.01725        1.60091        2.83187
H          2.48207        1.30949        3.07326
H          2.94881       -0.00143        1.01056
H          2.56400        1.42611        0.00820
H          3.97534        1.45596        1.09801
H          1.60159        3.48059        2.68936
