23
ISOPENTYL_ACETATE.gamout	Energy:    -425.1032168
C          1.96386        2.12509        2.37237
C          3.33012        2.29081        1.67952
C          1.28615        0.79483        2.01163
C          1.04975        3.31233        2.04241
C          4.40284        1.35441        2.21234
O          5.63028        1.64455        1.51346
C          6.71995        0.93663        1.86696
O          6.70348        0.07192        2.71222
C          7.94257        1.37928        1.10224
H          2.13845        2.13221        3.46334
H          3.21738        2.12958        0.59455
H          3.68616        3.32516        1.80651
H          0.32405        0.68988        2.53370
H          1.90248       -0.07364        2.28281
H          1.08714        0.74204        0.92938
H          0.87409        3.38276        0.95711
H          1.49435        4.26304        2.37171
H          0.07101        3.20820        2.53248
H          4.15561        0.29549        2.05763
H          4.56725        1.50167        3.29014
H          7.67978        1.72159        0.09412
H          8.40325        2.22396        1.63718
H          8.66742        0.55922        1.06379
