24
ISOPHORONE.gamout	Energy:    -426.0570653
C         -2.26200        1.69456        0.86229
C         -1.11529        0.91450        0.28771
C          0.09679        1.47037        0.07097
C         -1.39333       -0.53109       -0.05520
C          1.22012        0.72255       -0.52340
C          0.44578       -1.72898        1.20996
C          0.90186       -0.67204       -1.04193
C         -0.13847       -1.42497       -0.18464
C         -0.51814       -2.74872       -0.86688
O          2.33591        1.21000       -0.62557
H         -2.00098        2.74601        1.03402
H         -2.58970        1.25216        1.81748
H         -3.13291        1.65524        0.18690
H          0.29875        2.51269        0.32793
H         -1.96161       -0.54949       -1.00375
H         -2.07822       -0.95724        0.69656
H          0.71260       -0.81421        1.75613
H          1.35423       -2.34211        1.12357
H         -0.27918       -2.28620        1.82131
H          1.84213       -1.23235       -1.13497
H          0.50386       -0.54299       -2.06448
H         -0.92271       -2.58038       -1.87598
H         -1.27893       -3.28764       -0.28250
H          0.35804       -3.40664       -0.96106
