15
ISOPROPYL_METHYL_SULFIDE.gamout	Energy:    -556.2489062
S          2.18337        2.60969        0.03093
C          0.98409        2.60464        1.40582
C          3.76607        2.14498        0.87323
C          3.73344        0.72823        1.45044
C          4.21882        3.18991        1.89502
H          1.23832        3.34697        2.17418
H          0.01659        2.87811        0.96586
H          0.88841        1.61072        1.86336
H          4.46800        2.16025        0.02461
H          3.44322       -0.00533        0.68708
H          4.72729        0.45344        1.83804
H          3.02408        0.65397        2.28761
H          5.21663        2.93214        2.28401
H          4.26874        4.19009        1.44520
H          3.53469        3.23179        2.75512
