5
KETENE.gamout	Energy:    -152.4172938
C          2.36565        0.24467        0.93951
C          1.11829        0.66496        0.99300
O          0.01534        1.03657        1.04105
H          2.89215        0.00473        1.86224
H          2.85828        0.14135       -0.02637
