24
L-TYROSINE.gamout	Energy:    -629.2553746
C          6.19785        1.80309       -0.03763
C          7.04474        0.76158       -0.44479
C          6.44922       -0.39133       -0.98421
C          5.06487       -0.50920       -1.10735
C          4.23850        0.54055       -0.69030
C          4.80987        1.70179       -0.15536
O          2.88881        0.38250       -0.83437
C          8.54579        0.87810       -0.29671
C          9.09449        0.46383        1.08920
N         10.53231        0.70141        1.13194
C          8.74684       -1.00039        1.37408
O          9.21121       -1.94177        0.77382
O          7.87688       -1.14722        2.39333
H          6.62881        2.71866        0.37410
H          7.08351       -1.21354       -1.32152
H          4.60923       -1.40467       -1.53172
H          4.17108        2.52994        0.16362
H          2.41917        1.16305       -0.51951
H          9.04791        0.25979       -1.05656
H          8.87346        1.91456       -0.45833
H          8.61701        1.08087        1.86267
H         10.91296        0.58306        2.06677
H         11.02556        0.06437        0.50943
H          7.69859       -2.09581        2.50212
