25
LEVODOPA.gamout	Energy:    -704.3973858
O          2.35038       -2.08860        0.70328
O         -2.90745       -1.38105       -0.26242
O          3.93296       -0.33289       -0.57930
O         -2.01108       -0.70187       -2.20572
N         -3.81198        1.27635       -0.13104
C         -1.43764        1.04552        0.73018
C         -2.42943        0.94676       -0.46293
C         -0.00119        0.71472        0.38741
C          0.53872       -0.53886        0.71179
C          0.81157        1.64443       -0.27802
C          1.85263       -0.86615        0.37615
C         -2.41002       -0.44012       -1.09989
C          2.13020        1.32590       -0.61749
C          2.65234        0.07531       -0.29426
H         -1.79776        0.38190        1.52963
H         -1.50647        2.07583        1.11287
H         -2.10252        1.62668       -1.26048
H         -0.05943       -1.28732        1.23293
H          0.41795        2.62915       -0.53544
H          2.75760        2.05686       -1.13393
H         -3.91808        2.25617        0.11493
H         -4.16556        0.70958        0.63572
H          3.26544       -2.15036        0.39596
H         -2.87804       -2.23519       -0.72145
H          4.41949        0.34734       -1.05685
