51
LINOLEATE-1.gamout	Energy:    -853.9538881
C         -9.25074        1.36088       -0.36670
C         -7.79038        1.90824       -0.19631
C         -6.67286        0.86427       -0.25957
H         -7.75956        2.45332        0.76379
H         -7.63741        2.67515       -0.97633
C         -5.26029        1.44785       -0.11241
H         -6.75476        0.31303       -1.21074
H         -6.83885        0.10965        0.52643
C         -4.14686        0.38126       -0.15344
H         -5.18863        2.00652        0.83722
H         -5.07812        2.18718       -0.91329
C         -2.75959        0.94360       -0.03493
H         -4.23023       -0.16735       -1.11007
H         -4.31589       -0.35994        0.64442
C         -1.85355        0.62485        0.89804
C         -0.46801        1.21724        1.00145
C          0.62273        0.18081        0.89172
H         -0.37100        1.73113        1.97820
H         -0.33150        1.98501        0.22510
C          1.57977        0.15546       -0.04274
C          2.65035       -0.89237       -0.16659
C          4.08075       -0.33496       -0.07957
H          2.53997       -1.41338       -1.13576
H          2.50884       -1.65773        0.61374
C          5.15809       -1.41167       -0.22147
H          4.21352        0.18349        0.88471
H          4.22418        0.43154       -0.86054
C          6.58083       -0.86351       -0.10469
H          5.04314       -1.92356       -1.19313
H          4.99774       -2.18407        0.55059
C          7.66464       -1.93473       -0.22464
H          6.69536       -0.34526        0.86351
H          6.73838       -0.09441       -0.88054
C          9.08166       -1.37493       -0.08432
H          7.56501       -2.45017       -1.19584
H          7.49871       -2.70571        0.54788
C         10.17957       -2.43861       -0.16168
H          9.15992       -0.83884        0.87789
H          9.25493       -0.61658       -0.86804
C         11.58993       -1.86455       -0.01598
H         10.09697       -2.97449       -1.12254
H         10.00568       -3.19421        0.62291
H         11.80528       -1.13428       -0.81166
H         12.35600       -2.65241       -0.06916
H         11.70897       -1.34675        0.94890
H         -2.47894        1.69172       -0.78967
H         -2.11430       -0.12444        1.65603
H          0.59668       -0.62422        1.63793
H          1.59295        0.95224       -0.79826
O        -10.15117        2.22964       -0.25965
O         -9.36963        0.13115       -0.59128
