24
LYSINE.gamout	Energy:    -496.4188265
C          3.53540        1.75357       -0.01630
C          4.78165        1.06694        0.60281
C          5.99668        1.94273        0.33224
N          5.03709       -0.30740        0.18921
C          2.21298        1.11105        0.41194
O          6.35184        2.86389        1.02708
O          6.61962        1.62784       -0.82490
C          0.98849        1.77693       -0.22314
C         -0.33639        1.16301        0.22932
N         -1.46747        1.81423       -0.42876
H          3.62724        1.74070       -1.11491
H          3.53185        2.81203        0.29118
H          4.25852       -0.91823        0.41496
H          5.21902       -0.37498       -0.80905
H          2.13185        1.16454        1.51139
H          2.21204        0.03893        0.15230
H          7.35890        2.24520       -0.94086
H          1.04868        1.71499       -1.32130
H          0.99057        2.85240        0.02724
H         -0.39005        1.19804        1.33666
H         -0.35519        0.09729       -0.05044
H         -1.54138        2.79443       -0.16643
H         -2.35129        1.36983       -0.19756
H          4.66449        1.07739        1.69660
