23
LYSINATE-1.gamout	Energy:    -495.8716844
O         -2.61570        0.66674       -1.35498
O         -1.76586        1.75243        0.44061
N         -2.56576       -1.74331        0.03407
N          4.64582        0.21358       -0.28137
C          0.87137       -0.06942        0.42124
C         -0.22497       -1.02834       -0.05017
C          2.25554       -0.41328       -0.13593
C         -1.64648       -0.64775        0.39782
C          3.34337        0.56379        0.30366
C         -2.05795        0.73184       -0.22933
H          0.90313       -0.07627        1.52558
H          0.59447        0.95727        0.14046
H         -0.01618       -2.05207        0.30836
H         -0.22123       -1.07720       -1.15346
H          2.20184       -0.41268       -1.24044
H          2.55403       -1.43364        0.15905
H         -1.65052       -0.53518        1.49403
H          3.44222        0.52732        1.40120
H          3.02102        1.59282        0.04965
H         -2.81119       -1.56125       -0.94383
H         -3.44299       -1.60321        0.53330
H          5.35520        0.90567       -0.05205
H          4.57903        0.18203       -1.29687
