12
M-DIBROMOBENZENE.gamout	Energy:   -5378.2103532
Br         7.48608        3.31446       -1.05731
C          6.31887        1.85076       -0.66822
C          6.87479        0.61197       -0.33729
C          4.93582        2.04116       -0.72101
C          6.00811       -0.44782       -0.05628
C          4.09528        0.96163       -0.43484
Br         6.74513       -2.15259        0.39858
C          4.62092       -0.28961       -0.10068
H          7.95440        0.47614       -0.29960
H          4.52341        3.01569       -0.98110
H          3.01304        1.09759       -0.47285
H          3.96376       -1.12978        0.12203
