30
M-DIISOPROPYLBENZENE.gamout	Energy:    -467.4986851
C          0.99022        3.65805        3.97589
C          1.56258        4.01931        2.59372
C          2.01427        5.48942        2.54094
C          2.67291        3.06647        2.16960
C          3.87364        2.98173        2.89554
C          2.52508        2.24854        1.04275
C          4.91139        2.11634        2.52797
C          3.54820        1.37612        0.65718
C          6.19628        2.05479        3.34351
C          4.73183        1.30936        1.39110
C          7.42352        2.48014        2.51889
C          6.40304        0.67106        3.98476
H          0.62861        2.62051        3.99683
H          1.75217        3.76512        4.76250
H          0.15026        4.32075        4.23282
H          0.74863        3.90070        1.86023
H          1.17786        6.16141        2.78494
H          2.38756        5.75445        1.54180
H          2.82007        5.68598        3.26408
H          4.01302        3.60901        3.77876
H          1.60301        2.29353        0.45953
H          3.41949        0.74444       -0.22421
H          6.08872        2.78255        4.16455
H          5.51922        0.62335        1.07514
H          8.32707        2.48994        3.14693
H          7.60832        1.78801        1.68338
H          7.28911        3.48591        2.09641
H          7.30270        0.66911        4.61830
H          6.53259       -0.10842        3.21911
H          5.54267        0.38998        4.60817
