21
M-ETHYLTOLUENE.gamout	Energy:    -349.7233625
C          1.04575        2.34884        1.58683
C          1.94775        2.00102        0.39050
C          3.41854        2.22732        0.67007
C          4.01348        3.47249        0.41263
C          4.21237        1.21120        1.22234
C          5.36320        3.72655        0.69509
C          5.56062        1.44313        1.50758
C          5.97143        5.08410        0.43112
C          6.13321        2.68967        1.24627
H          1.30359        1.73758        2.46411
H          1.16074        3.40514        1.87127
H         -0.01306        2.17205        1.34486
H          1.64370        2.60535       -0.47841
H          1.78636        0.94817        0.11109
H          3.40587        4.26829       -0.02696
H          3.77332        0.23121        1.42204
H          6.17230        0.64277        1.92936
H          6.02350        5.68113        1.35639
H          6.99663        4.99528        0.04305
H          5.37962        5.65560       -0.29704
H          7.18961        2.85987        1.46579
