16
M-NITROANILINE.gamout	Energy:    -491.5193909
O          6.67878        4.03464       -1.23969
N          7.18147        2.95902       -0.94565
O          8.38682        2.76171       -0.86144
C          6.27425        1.82498       -0.67487
C          6.84048        0.59365       -0.35161
C          4.89627        2.02965       -0.75129
C          6.00040       -0.50208       -0.08553
C          4.06928        0.93469       -0.48946
N          6.53292       -1.74724        0.19882
C          4.60397       -0.31137       -0.16382
H          7.92438        0.50033       -0.30938
H          4.50165        3.00968       -1.00717
H          2.98624        1.05423       -0.54191
H          5.93611       -2.43921        0.62885
H          7.50376       -1.80424        0.47164
H          3.93717       -1.15338        0.03347
