17
MESITYL_OXIDE.gamout	Energy:    -309.4712629
C          3.25578        1.36580        2.23066
C          4.45199        1.99654        2.14042
C          1.98221        1.70819        1.54661
C          5.63269        1.48431        2.92259
C          4.72749        3.21073        1.29836
C          0.81212        0.79370        1.86901
O          1.83928        2.64489        0.77396
H          3.20116        0.49114        2.88532
H          6.01467        2.26805        3.59771
H          5.38797        0.59712        3.51995
H          6.46190        1.23008        2.24129
H          5.09974        4.02845        1.93846
H          5.53715        2.98841        0.58237
H          3.84506        3.54986        0.75231
H          1.05036       -0.24504        1.58971
H          0.61034        0.79759        2.95207
H         -0.07819        1.12759        1.32544
