9
MESO4-1.gamout	Energy:    -738.4588814
C         -1.13191       -1.47739        0.86445
O         -1.34507       -2.63813        0.09046
H         -1.49429       -1.61111        1.89894
H         -0.06201       -1.20596        0.89279
H         -1.70085       -0.66695        0.38308
S         -0.56293       -4.05065        0.68439
O          0.88448       -3.69474        0.67580
O         -0.98697       -5.04314       -0.32757
O         -1.12974       -4.24262        2.04924
