14
METHYL_PROPIONATE.gamout	Energy:    -307.3235008
C          0.02187        0.07801       -0.00033
C         -1.23343       -0.76928       -0.00058
C         -2.52354        0.04428        0.00114
O          0.05927        1.28620       -0.00122
O          1.12901       -0.69136        0.00076
C          2.38726       -0.00635        0.00025
H         -1.17669       -1.43558       -0.87635
H         -1.17573       -1.43787        0.87336
H         -2.58288        0.68947        0.88799
H         -2.58388        0.69168       -0.88403
H         -3.39452       -0.62576        0.00080
H          2.47956        0.62449       -0.89377
H          2.47969        0.62562        0.89346
H          3.15292       -0.78850        0.00070
