24
METHYLCYCLOHEPTANE.gamout	Energy:    -314.0584022
C          5.05195        4.24877        1.91120
C          3.88749        3.25295        1.80940
C          3.70069        2.50661        3.14942
C          2.60176        3.99237        1.38434
C          3.08623        1.09556        3.08428
C          1.40461        3.13168        0.95922
C          1.92232        0.88325        2.09744
C          0.93668        2.05457        1.95116
H          5.99143        3.73780        2.16731
H          4.85567        4.99933        2.69386
H          5.20636        4.78624        0.96413
H          4.14673        2.51818        1.02548
H          3.09018        3.14584        3.80893
H          4.67522        2.41760        3.65377
H          2.84179        4.66786        0.54732
H          2.29892        4.64654        2.22155
H          2.74929        0.83060        4.09968
H          3.87939        0.37080        2.83853
H          1.64347        2.63327        0.00339
H          0.56272        3.80881        0.74296
H          1.37671       -0.02091        2.40836
H          2.32561        0.65255        1.09753
H         -0.02569        1.66056        1.58868
H          0.72564        2.50684        2.93549
