6
METHANETHIOL.gamout	Energy:    -438.4750418
C          0.80901        0.99126        0.88088
H         -0.01255        0.28752        0.69469
H          0.94986        1.61320       -0.01236
H          0.54753        1.61807        1.74311
S          2.29202       -0.03149        1.22357
H          3.16131        0.98584        1.42342
