19
METHYLPARABEN.gamout	Energy:    -534.7028604
O         -2.26938       -0.99587       -0.00583
O          3.99540       -0.20194       -0.02629
O         -2.24179        1.25288       -0.06415
C         -0.16047        0.07087       -0.03350
C          0.61310        1.24195       -0.06346
C          0.49166       -1.17506       -0.00135
C          2.00333        1.17601       -0.06162
C          1.88000       -1.25102        0.00067
C          2.64184       -0.07356       -0.02958
C         -1.64144        0.19884       -0.03692
C         -3.69896       -0.96304       -0.00656
H          0.10457        2.20568       -0.08820
H         -0.10002       -2.08872        0.02215
H          2.59796        2.09263       -0.08516
H          2.39277       -2.21264        0.02530
H         -4.02192       -2.00881        0.02112
H         -4.07178       -0.46912       -0.91390
H         -4.07107       -0.42131        0.87324
H          4.42382        0.66231       -0.04840
