22
METHYL-4-HYDROXYPHENYLACETATE.gamout	Energy:    -573.9557437
O         -3.11166       -0.38114       -0.46736
O          3.37704        0.15650        1.05692
O         -3.00715        1.69195       -1.33385
C         -0.11899        0.06899       -1.24071
C         -1.39920        0.02670       -2.05730
C          0.61699        1.25703       -1.12716
C          0.35188       -1.06791       -0.56591
C          1.78540        1.31158       -0.36463
C          1.51729       -1.02854        0.19843
C          2.23991        0.16612        0.30107
C         -2.58589        0.56056       -1.27220
C         -4.19873        0.02341        0.37335
H         -1.30424        0.65225       -2.95421
H         -1.61449       -1.00386       -2.36970
H          0.27149        2.15741       -1.63834
H         -0.20400       -2.00447       -0.63838
H          2.34731        2.24647       -0.29154
H          1.88362       -1.91536        0.71642
H         -4.43485       -0.84498        0.99641
H         -5.06738        0.30779       -0.23546
H         -3.90297        0.87815        0.99531
H          3.79240        1.02643        1.05964
