8
METHYL_NITRATE.gamout	Energy:    -319.8264464
O          1.98336        1.50469        1.73330
C          0.75352        1.08829        1.12498
N          3.13756        1.08765        1.04409
O          2.97561        0.44044        0.03740
O          4.15462        1.44472        1.56887
H         -0.01332        1.49885        1.79047
H          0.65426        1.50766        0.11557
H          0.68655       -0.00662        1.08767
