18
METHYL_MALEATE.gamout	Energy:    -533.5348183
C         17.02115       11.05904       -0.29982
C         17.04665       12.31078        0.18797
O         18.11825       13.08820        0.36040
O         15.91219       12.85465        0.79035
C         15.78842       10.29546       -0.12363
C         18.02774       14.46207       -0.05166
C         14.67106       10.99348        0.14029
O         13.46762       10.49447        0.45439
O         14.72690       12.38758        0.09538
C         12.31117       11.13304       -0.09642
H         17.91131       10.63621       -0.75999
H         15.77419        9.20739       -0.12052
H         19.02411       14.88630        0.10990
H         17.76244       14.51908       -1.11814
H         17.28625       15.00449        0.54795
H         11.45202       10.55588        0.26039
H         12.23150       12.17214        0.25088
H         12.34665       11.10906       -1.19691
