29
METHYL_OCTANOATE.gamout	Energy:    -503.6147747
C          5.13020        1.09222       -0.63189
O          4.11094        1.91111       -1.22082
C          3.07730        1.31113       -1.84900
C          2.09560        2.31964       -2.40447
O          2.95403        0.11206       -1.94498
C          0.68926        2.14475       -1.81013
C         -0.32569        3.13346       -2.38931
C         -1.73191        2.97553       -1.80460
C         -2.75089        3.96217       -2.38179
C         -4.15755        3.81063       -1.79492
C         -5.17129        4.79935       -2.37361
H          4.90783        0.03089       -0.78910
H          5.16841        1.32106        0.44083
H          6.08724        1.35699       -1.09934
H          2.05690        2.15665       -3.49361
H          2.47455        3.33534       -2.22979
H          0.74164        2.27013       -0.71565
H          0.35215        1.11233       -1.98864
H         -0.36892        3.00826       -3.48537
H          0.02790        4.16467       -2.21538
H         -1.68454        3.10018       -0.70871
H         -2.08541        1.94414       -1.97662
H         -2.79794        3.83713       -3.47790
H         -2.39399        4.99313       -2.21066
H         -4.10529        3.93460       -0.69986
H         -4.51098        2.77933       -1.96460
H         -4.86112        5.83945       -2.18790
H         -6.16711        4.66219       -1.92812
H         -5.27078        4.67352       -3.46298
