8
METHYL_FORMATE.gamout	Energy:    -228.7943039
C          0.03854        0.30859       -4.60877
O         -1.13937        0.26478       -4.85156
O          0.93589       -0.62489       -4.93855
H          0.54276        1.13650       -4.07472
C          0.43733       -1.77467       -5.64227
H         -0.30858       -2.29891       -5.03059
H         -0.02365       -1.46786       -6.59020
H          1.30781       -2.41228       -5.82216
