18
METHYL_N-BUTYL_ETHER.gamout	Energy:    -272.6077891
C          2.23167        1.96856        1.58099
O          1.07489        1.35306        2.11744
C          0.93554        1.44824        3.51587
C          3.51981        1.17056        1.79066
C          4.72446        1.81252        1.09276
C          6.02711        1.03486        1.29306
H          2.34467        2.98888        1.99886
H          2.03748        2.07723        0.50324
H         -0.03998        1.01810        3.77614
H          0.96120        2.50271        3.84956
H          1.72027        0.88972        4.05671
H          3.36261        0.14960        1.40660
H          3.73486        1.07676        2.86763
H          4.85341        2.84468        1.45996
H          4.51244        1.89959        0.01361
H          5.93699        0.00698        0.90980
H          6.29035        0.96999        2.36013
H          6.86554        1.51663        0.76972
