19
METHYL_SALICYLATE.gamout	Energy:    -534.6932902
O          1.82042        2.26640        3.12356
C          2.45020        1.42518        2.26681
O          1.84470        0.76995        1.45055
C          3.92820        1.43030        2.47356
C          0.39738        2.33043        3.00735
C          4.79220        0.64946        1.66568
C          4.50088        2.22047        3.48979
O          4.28021       -0.12004        0.67853
C          6.17780        0.68450        1.89747
C          5.87331        2.25002        3.71545
C          6.71459        1.47434        2.91031
H         -0.04916        1.34491        3.19606
H          0.06833        3.05207        3.76200
H          0.10802        2.66401        2.00190
H          3.83556        2.81938        4.10768
H          4.98997       -0.58515        0.21980
H          6.83440        0.07851        1.26767
H          6.28516        2.87189        4.51081
H          7.79431        1.48297        3.06986
