33
METRONIDAZOLE_BENZOATE.gamout	Energy:    -967.1012314
O         -1.10747        0.30490        0.02481
O          4.44835        2.40160        0.75643
O          2.31465        2.15827        1.10546
O         -1.77955        1.16933       -1.93831
N          2.47170       -0.52301        0.24342
N          4.31304       -1.52198       -0.53578
N          3.41841        1.73628        0.75018
C          1.07365       -0.36059        0.64294
C          3.01683       -1.66584       -0.27233
C          0.23702        0.27859       -0.46189
C          3.51808        0.39330        0.29769
C          4.63917       -0.25596       -0.18948
C          2.25282       -2.92724       -0.49877
C         -2.04640        0.79410       -0.81907
C         -3.41100        0.80961       -0.21920
C         -3.65951        0.36651        1.09042
C         -4.47207        1.28682       -1.00597
C         -4.95705        0.39948        1.60325
C         -5.76681        1.31884       -0.48874
C         -6.01111        0.87469        0.81566
H          0.67747       -1.35497        0.87757
H          1.02950        0.25364        1.54586
H          0.57753        1.29948       -0.67638
H          0.28413       -0.30395       -1.39309
H          5.63839        0.15666       -0.29409
H          1.38735       -2.77284       -1.16017
H          2.92774       -3.65082       -0.96673
H          1.88222       -3.35621        0.44520
H         -2.83601       -0.00010        1.70076
H         -4.26103        1.62811       -2.01938
H         -5.14682        0.05405        2.62077
H         -6.58840        1.69146       -1.10267
H         -7.02481        0.90006        1.21969
