28
MOEMPYR+1.gamout	Energy:    -444.8246642
C         -1.90755       -1.16134       -2.38781
O         -0.52855       -1.29993       -2.07116
H         -2.32734       -0.24977       -1.92929
H         -2.48117       -2.03908       -2.04453
H         -1.97915       -1.08468       -3.47821
C         -0.25855       -1.42583       -0.70660
C          1.25508       -1.63358       -0.63620
H         -0.79868       -2.28682       -0.27029
H         -0.57328       -0.52167       -0.14956
N          1.85957       -1.59589        0.74614
H          1.74705       -0.84904       -1.22258
H          1.51220       -2.60211       -1.08033
C          1.32623       -2.71129        1.59094
H          0.24106       -2.62178        1.67718
H          1.77983       -2.64742        2.58439
H          1.58776       -3.66581        1.12349
C          1.62046       -0.24115        1.42566
C          2.96210        0.16277        2.02027
H          0.80579       -0.34463        2.14699
H          1.31672        0.46356        0.64558
C          3.95520       -0.35575        0.97770
H          3.12755       -0.31377        2.99753
H          3.01327        1.24735        2.16740
C          3.39045       -1.72686        0.62846
H          4.98159       -0.43321        1.35398
H          3.96941        0.29918        0.09500
H          3.70444       -2.48499        1.35200
H          3.63441       -2.08057       -0.37607
