20
N,N-DIMETHYLANILINE.gamout	Energy:    -365.7336068
C          6.60621        4.17244       -1.33955
N          7.15507        2.91512       -0.87382
C          8.58713        2.70624       -0.94608
C          6.31088        1.84226       -0.62557
C          6.82357        0.56123       -0.30137
C          4.90164        1.98385       -0.68461
C          5.96679       -0.50627       -0.03305
C          4.57847       -0.34996       -0.07551
C          4.06143        0.90404       -0.41298
H          7.40879        4.91446       -1.40572
H          6.13191        4.08860       -2.33579
H          5.85022        4.56068       -0.63917
H          9.08639        3.67196       -1.07529
H          8.97103        2.25323       -0.01855
H          8.88036        2.05070       -1.78796
H          7.89756        0.39047       -0.26843
H          4.45523        2.93808       -0.95611
H          6.39928       -1.47882        0.21231
H          3.91499       -1.18926        0.13672
H          2.98062        1.05164       -0.46901
