12
N,N-DIMETHYLFORMAMIDE.gamout	Energy:    -248.2041087
O         -0.19409       -0.18314       -0.01944
N          2.07312        0.01911       -0.32002
C          3.27717        0.77678       -0.05032
C          2.19092       -1.14573       -1.17763
C          0.86241        0.39022        0.18013
H          3.74843        1.11373       -0.98834
H          3.03270        1.66045        0.55271
H          4.01368        0.16861        0.50121
H          2.42020       -0.85010       -2.21505
H          3.00034       -1.79974       -0.81789
H          1.24199       -1.69216       -1.16354
H          0.93134        1.29966        0.81838
