21
N-BUTYL_ACRYLATE.gamout	Energy:    -423.8759987
O          4.37383        1.10370        1.75480
C          3.17135        1.49197        1.28739
C          2.07370        0.75530        1.97207
O          3.02766        2.33014        0.42442
C          5.53476        1.73402        1.18198
C          0.79191        0.97869        1.66653
C          6.76934        1.14579        1.84262
C          8.06696        1.75288        1.29759
C          9.32143        1.17098        1.95246
H          2.37036        0.02893        2.73084
H          5.53035        1.56094        0.09547
H          5.46232        2.82003        1.34278
H          0.52516        1.71189        0.90254
H         -0.01336        0.43964        2.16747
H          6.77187        0.05466        1.68782
H          6.70674        1.30992        2.93047
H          8.04968        2.84573        1.44590
H          8.11469        1.59272        0.20744
H          9.32101        1.34778        3.03900
H          9.38427        0.08375        1.79182
H         10.23350        1.62462        1.53934
