23
N-BUTYL_PROPIONATE.gamout	Energy:    -425.1040492
O          2.47425       -0.14815       -2.48091
C          2.01140        0.28150       -1.29203
C          1.12308        1.49835       -1.45453
O          2.28347       -0.25282       -0.24164
C          3.31660       -1.31688       -2.47758
C          0.56426        2.02624       -0.13691
C          3.72001       -1.61579       -3.91104
C          4.61216       -2.85694       -4.02081
C          5.02530       -3.17356       -5.45957
H          1.71350        2.26626       -1.97994
H          0.31742        1.22712       -2.15517
H          4.19010       -1.12510       -1.83701
H          2.75800       -2.15305       -2.03096
H         -0.06820        2.90652       -0.31562
H         -0.04007        1.26102        0.36884
H          1.37395        2.31062        0.54815
H          2.80882       -1.75396       -4.51511
H          4.24214       -0.73881       -4.32683
H          5.51453       -2.71644       -3.40242
H          4.08328       -3.72474       -3.59202
H          5.66120       -4.06895       -5.50415
H          4.14463       -3.35504       -6.09471
H          5.58922       -2.33858       -5.90303
