33
N-DECYL_MERCAPTAN.gamout	Energy:    -791.8048943
C        103.98388       10.02854        0.00019
C        102.68919        9.21023       -0.00004
C        102.92084        7.69662        0.00020
C        103.75598       11.54278       -0.00008
C        101.62632        6.87744       -0.00005
C        105.05144       12.35991        0.00010
C        101.86944        5.36357        0.00015
C        104.82421       13.87489       -0.00017
C        100.56984        4.56005       -0.00013
C        106.12057       14.68793        0.00001
S        100.95269        2.75218        0.00013
H        104.58759        9.75142        0.88176
H        104.58809        9.75116       -0.88096
H        102.08522        9.48648       -0.88173
H        102.08473        9.48672        0.88125
H        103.52456        7.42078        0.88192
H        103.52504        7.42057       -0.88112
H        103.15201       11.81964       -0.88167
H        103.15156       11.81990        0.88111
H        101.02321        7.15223       -0.88242
H        101.02271        7.15242        0.88191
H        105.65552       12.08281        0.88172
H        105.65596       12.08253       -0.88113
H        102.46844        5.08857        0.88376
H        102.46893        5.08842       -0.88308
H        104.21972       14.14877       -0.88138
H        104.21928       14.14904        0.88065
H         99.97355        4.79721       -0.89212
H         99.97305        4.79737        0.89149
H        105.91720       15.76865       -0.00024
H        106.73092       14.46222        0.88828
H        106.73137       14.46190       -0.88787
H         99.67541        2.30636       -0.00024
