32
N-DECANOIC_ACID.gamout	Energy:    -542.8890903
C          4.38469        2.12781        1.51852
C          5.48811        1.16063        1.07897
C          3.33885        2.40791        0.43647
C          6.52532        0.89563        2.17333
C          2.25475        3.38709        0.91957
C          7.64053       -0.06945        1.76071
C          1.20694        3.70821       -0.11958
C          8.66661       -0.32024        2.86884
O          0.53072        2.60658       -0.52540
O          0.96343        4.80630       -0.56085
C          9.78795       -1.28664        2.47430
C         10.80387       -1.52789        3.59217
H          4.84287        3.08061        1.83515
H          3.87981        1.72166        2.41239
H          5.03418        0.20490        0.76496
H          5.99541        1.56500        0.18585
H          2.86561        1.46640        0.11951
H          3.83502        2.82670       -0.45461
H          6.01332        0.49722        3.06674
H          6.97267        1.85535        2.48547
H          1.73771        2.95796        1.79389
H          2.69951        4.34224        1.22676
H          8.15642        0.32689        0.86867
H          7.19530       -1.03099        1.45105
H          8.14671       -0.71285        3.76055
H          9.10846        0.64344        3.17745
H         -0.12340        2.88854       -1.18407
H          9.34334       -2.24822        2.16636
H         10.30717       -0.89504        1.58304
H         10.31753       -1.95198        4.48450
H         11.28955       -0.58746        3.89552
H         11.59299       -2.22616        3.27779
