15
N-ETHYLACETAMIDE.gamout	Energy:    -287.4797662
C         -1.41846       -0.43137        0.00794
C         -2.70152        0.38947        0.00169
N         -0.24236        0.42912       -0.01030
C          1.02343       -0.07877       -0.00941
C          2.14656        0.94523        0.00590
O          1.23560       -1.28405       -0.00101
H         -1.37458       -1.08203        0.89533
H         -1.38184       -1.10581       -0.86170
H         -2.77022        1.01684       -0.90011
H         -3.57511       -0.27602        0.01487
H         -2.76297        1.04218        0.88593
H         -0.37339        1.43112       -0.02192
H          2.42078        1.16488        1.04916
H          3.02306        0.51388       -0.49047
H          1.86853        1.88910       -0.48468
