20
N-ETHYLANILINE.gamout	Energy:    -365.7475022
C          7.78928        5.12973       -1.71877
C          6.63361        4.15118       -1.54480
N          7.08890        2.91748       -0.93631
C          6.25666        1.84475       -0.66346
C          6.81614        0.60328       -0.28371
C          4.85108        1.94742       -0.73203
C          6.00223       -0.48387        0.01982
C          4.60631       -0.37487       -0.04325
C          4.04671        0.84711       -0.42099
H          7.43541        6.06387       -2.17499
H          8.24886        5.37025       -0.74934
H          8.56769        4.71164       -2.37605
H          6.15009        3.96036       -2.52319
H          5.86500        4.60923       -0.90076
H          8.06554        2.69194       -1.06687
H          7.90319        0.50408       -0.22593
H          4.38230        2.88417       -1.03065
H          6.46306       -1.43034        0.31067
H          3.97115       -1.22875        0.19528
H          2.96129        0.95377       -0.47935
