19
N-ETHYLPYRROLIDONE.gamout	Energy:    -364.7936530
C         -1.70725        0.13680       -0.50268
C         -2.61205        0.60762        0.63749
N         -0.29202        0.20631       -0.18775
C          0.49226       -0.91079       -0.06227
C          1.94146       -0.44883        0.08727
C          1.84169        1.06486        0.33713
C          0.46200        1.45006       -0.23950
O          0.09540       -2.06408       -0.09300
H         -1.91969       -0.91284       -0.74461
H         -1.89789        0.73513       -1.41033
H         -2.39469        1.64604        0.92778
H         -3.66642        0.56025        0.32796
H         -2.48252       -0.03151        1.52174
H          2.43493       -1.00849        0.89117
H          2.46778       -0.69153       -0.84962
H          1.85873        1.26932        1.41686
H          2.65363        1.64106       -0.12350
H          0.53819        1.81173       -1.28235
H         -0.02973        2.24148        0.34458
