26
N-HEXYL_ACETATE.gamout	Energy:    -464.3626449
C         -1.16387        5.50819       -1.15592
C          0.35767        5.46859       -1.31093
C          1.06232        4.65055       -0.22395
C          2.58528        4.61002       -0.37889
C          3.28426        3.78813        0.70921
C          4.79252        3.76664        0.53334
C          7.15740        1.98005        2.75985
C          6.70239        2.84355        1.61007
O          5.36205        2.97275        1.59253
O          7.42953        3.36430        0.79604
H         -1.59248        4.49494       -1.19504
H         -1.45313        5.95362       -0.19143
H         -1.63314        6.10208       -1.95333
H          0.75682        6.49689       -1.30326
H          0.61599        5.05152       -2.29900
H          0.66764        3.61967       -0.23100
H          0.80813        5.06589        0.76680
H          2.83784        4.19605       -1.37037
H          2.97883        5.64107       -0.37077
H          3.04542        4.20037        1.70273
H          2.90543        2.75353        0.69825
H          5.08354        3.32814       -0.43281
H          5.22171        4.77832        0.57741
H          6.69904        0.98369        2.68562
H          6.82619        2.41916        3.71185
H          8.24794        1.89513        2.74452
