22
N-HEXYLAMINE.gamout	Energy:    -292.0299950
C         35.00675       10.02965        0.00522
C         36.30354        9.21364        0.00836
C         36.07571        7.69973        0.01286
C         35.23489       11.54435       -0.00395
C         37.37237        6.88965        0.02482
C         33.94046       12.35992       -0.00837
N         37.09783        5.45388       -0.01024
H         34.40180        9.74602       -0.87341
H         34.40333        9.75672        0.88855
H         36.90737        9.49847        0.88752
H         36.90572        9.48971       -0.87471
H         35.48528        7.40047       -0.86785
H         35.47209        7.42411        0.89601
H         35.84242       11.82328        0.87365
H         35.84043       11.81221       -0.88632
H         37.98171        7.20131        0.89777
H         37.96163        7.14112       -0.87160
H         34.14623       13.44018       -0.01540
H         33.32905       12.12981       -0.89472
H         33.32926       12.14153        0.88117
H         37.95004        4.90395       -0.07173
H         36.59756        5.14726        0.82080
