13
N-METHYLPYRROLE.gamout	Energy:    -249.1554885
C          0.70928        1.95614        0.99359
N          1.98971        1.84256        1.66074
C          2.91436        0.84857        1.44341
C          2.52465        2.77136        2.52190
C          4.04903        1.13875        2.18016
C          3.80103        2.36260        2.86663
H         -0.00292        2.48012        1.64385
H          0.79232        2.51047        0.04498
H          0.31343        0.95518        0.77921
H          2.69055        0.01381        0.78531
H          1.95339        3.64518        2.82191
H          4.94861        0.53038        2.22839
H          4.47237        2.88057        3.54683
