20
N-METHYLPIPERIDINE.gamout	Energy:    -290.8213722
N          1.00057       -0.00013        0.25426
C         -1.87420        0.00027       -0.23427
C         -1.12600       -1.25842        0.21886
C         -1.12567        1.25874        0.21895
C          0.34020       -1.21067       -0.21838
C          0.34052        1.21062       -0.21829
C          2.42385       -0.00031       -0.01720
H         -1.94577        0.00033       -1.33610
H         -2.90667        0.00040        0.14687
H         -1.16294       -1.33918        1.31684
H         -1.60043       -2.16194       -0.19345
H         -1.59985        2.16241       -0.19330
H         -1.16259        1.33943        1.31693
H          0.88253       -2.08110        0.17936
H          0.39146       -1.28301       -1.33134
H          0.39179        1.28302       -1.33125
H          0.88309        2.08088        0.17950
H          2.65778       -0.00030       -1.10635
H          2.89109       -0.89046        0.42738
H          2.89134        0.88966        0.42745
