17
N-METHYLANILINE.gamout	Energy:    -326.4863331
C          6.64762        4.21889       -1.35181
N          7.11198        2.93488       -0.88246
C          6.27386        1.86096       -0.63847
C          6.82669        0.59289       -0.34682
C          4.86869        1.98776       -0.65329
C          6.00587       -0.49835       -0.07839
C          4.61057       -0.36641       -0.08786
C          4.05774        0.88245       -0.37810
H          7.50479        4.89753       -1.43440
H          6.14910        4.16480       -2.33842
H          5.93695        4.66669       -0.63914
H          8.08260        2.71307       -1.04631
H          7.91349        0.47735       -0.32702
H          4.40619        2.94780       -0.87993
H          6.46133       -1.46567        0.14443
H          3.97011       -1.22304        0.12557
H          2.97278        1.00744       -0.39156
