23
N-METHYLCYCLOHEXYLAMINE.gamout	Energy:    -330.0846245
C         -3.86961        1.13176        1.15589
C         -5.23913        1.81304        1.27107
C         -3.89576        0.00574        0.11368
C         -5.73986        2.30709       -0.09370
C         -5.78147        1.17542       -1.14430
C         -4.40826        0.49640       -1.24710
N         -6.23407        1.58493       -2.47135
C         -7.62432        1.99138       -2.58695
H         -3.55099        0.74197        2.13500
H         -3.11777        1.88392        0.85910
H         -5.96990        1.09505        1.68306
H         -5.19707        2.65046        1.98460
H         -2.89486       -0.43840        0.00144
H         -4.55479       -0.80330        0.47411
H         -6.73515        2.76319        0.01169
H         -5.06571        3.09960       -0.46606
H         -6.50526        0.41655       -0.79314
H         -3.69007        1.22350       -1.66835
H         -4.46936       -0.33291       -1.96640
H         -5.61135        2.28793       -2.86158
H         -7.85406        2.21611       -3.63794
H         -8.27339        1.15828       -2.27663
H         -7.90683        2.87828       -1.98451
