16
N-METHYLPYRROLIDONE.gamout	Energy:    -325.5334072
O         -2.30198        0.55358       -0.35197
N         -0.29235       -0.57329       -0.28102
C          1.10062        1.01943        0.76214
C          1.11447       -0.31014       -0.02387
C         -0.23379        1.67424        0.36954
C         -1.10486        0.51772       -0.12023
C         -0.74652       -1.81429       -0.86046
H          1.11672        0.81110        1.84115
H          1.97472        1.64111        0.53173
H          1.67335       -0.22185       -0.97471
H          1.56809       -1.13561        0.54605
H         -0.12632        2.38674       -0.46397
H         -0.73664        2.20620        1.18631
H         -0.48692       -2.66630       -0.21280
H         -0.28943       -1.98220       -1.85050
H         -1.83552       -1.76195       -0.97378
