30
N-PENTYLCYCLOPENTANE.gamout	Energy:    -392.5725986
C          0.81837        1.43653        2.98142
C          1.17251        0.84600        4.35754
C          1.64223        1.83920        5.43103
C          1.97469        1.94977        2.10729
C          1.60590        1.25287        6.85752
C          3.09882        2.37611        5.29048
C          2.95545        0.86874        1.63850
C          2.48530        2.20629        7.67359
C          3.67317        2.49237        6.73215
C          4.05000        1.40696        0.71420
H          0.09968        2.25915        3.13397
H          0.27432        0.66738        2.40793
H          0.26666        0.34588        4.73871
H          1.92768        0.04902        4.25326
H          0.95473        2.70339        5.41692
H          2.52920        2.74169        2.63392
H          1.53888        2.43404        1.21691
H          2.05196        0.24253        6.85328
H          0.58147        1.15566        7.24614
H          3.11826        3.34293        4.77009
H          3.70582        1.68521        4.68832
H          3.42578        0.38536        2.50920
H          2.39188        0.07549        1.11766
H          2.79646        1.79397        8.64385
H          1.92935        3.13621        7.87743
H          4.13574        3.47039        6.92439
H          4.45795        1.73666        6.88669
H          3.61724        1.86550       -0.18843
H          4.73202        0.60765        0.39021
H          4.65307        2.17690        1.22026
