26
N-PERFLUOROOCTANE.gamout	Energy:   -2099.7063466
F          1.24609        0.59425        1.09743
F          1.24609        0.59425       -1.09743
F         -1.24608       -0.59424       -1.09743
F         -1.24608       -0.59424        1.09743
F          0.91366       -2.14487       -1.09734
F          0.91366       -2.14487        1.09734
F         -0.91367        2.14488        1.09734
F         -0.91366        2.14488       -1.09734
F          3.41421       -0.97481       -1.09759
F          3.41422       -0.97481        1.09759
F         -3.41421        0.97480        1.09759
F         -3.41421        0.97480       -1.09759
F          4.84555       -2.96346       -0.00000
F          3.12879       -3.71826        1.08585
F          3.12879       -3.71826       -1.08585
F         -4.84555        2.96344       -0.00000
F         -3.12880        3.71826       -1.08585
F         -3.12880        3.71826        1.08584
C          0.78895       -0.03747        0.00000
C         -0.78894        0.03748        0.00000
C          1.36297       -1.50546        0.00000
C         -1.36297        1.50547        0.00000
C          2.93367       -1.58806       -0.00000
C         -2.93366        1.58806        0.00000
C          3.51361       -3.04805       -0.00000
C         -3.51362        3.04804       -0.00000
