17
N-PENTANE.gamout	Energy:    -197.4886313
C          3.74671        2.40751        2.89593
C          2.60283        1.47009        2.49480
C          1.83071        1.93707        1.25520
C          4.52750        1.93946        4.12581
C          0.67687        1.01376        0.86080
H          3.33507        3.41377        3.08364
H          4.43702        2.51855        2.04238
H          1.90163        1.36778        3.34198
H          3.00681        0.45839        2.31315
H          2.53406        2.03189        0.41038
H          1.44186        2.95316        1.43861
H          5.33352        2.64279        4.38001
H          3.87171        1.85167        5.00633
H          4.98700        0.95289        3.95700
H         -0.06252        0.92878        1.67265
H          1.03520       -0.00250        0.63315
H          0.15092        1.38775       -0.02957
