27
N-PROPYLCYCLOHEXANE.gamout	Energy:    -353.3268117
C         -3.58612        7.41379        3.04159
C         -2.57727        6.29614        3.33711
C         -1.94284        5.75182        2.05055
H         -3.09225        5.47481        3.86503
H         -1.79693        6.66471        4.02099
C         -4.67315        6.97908        2.04095
H         -3.05075        8.28888        2.63118
H         -4.06050        7.75147        3.97657
C         -4.02250        6.43444        0.75559
H         -5.23171        6.14443        2.50781
C         -5.67792        8.11104        1.77290
C         -3.01222        5.31526        1.04119
H         -3.51409        7.26715        0.23694
H         -4.79367        6.06280        0.06541
H         -2.53966        4.98763        0.10241
H         -3.55259        4.43890        1.43985
H         -1.26947        4.91140        2.27981
H         -1.31590        6.53954        1.59684
C         -6.91385        7.70275        0.96151
H         -5.15881        8.94247        1.26312
H         -6.01505        8.51559        2.74274
C         -7.93206        8.83310        0.79855
H         -7.39464        6.84212        1.45668
H         -6.60671        7.34748       -0.03428
H         -8.29442        9.18705        1.77612
H         -8.80621        8.50449        0.21778
H         -7.48890        9.69484        0.27629
