17
N-VALERIC_ACID.gamout	Energy:    -346.5955589
C          0.92822        0.94775        1.06934
C          2.10461        1.83403        1.48523
C          3.46724        1.18038        1.23774
C          4.64347        2.09516        1.63294
C          5.97419        1.42716        1.38292
O          6.38401        0.68933        2.44246
O          6.61350        1.49263        0.36003
H         -0.03253        1.44582        1.26185
H          0.97451        0.70691       -0.00358
H          0.93259       -0.00236        1.62525
H          2.05561        2.79135        0.93958
H          2.01590        2.08853        2.55474
H          3.53441        0.23894        1.80681
H          3.56416        0.91168        0.17348
H          4.61916        3.01614        1.03505
H          4.56542        2.36152        2.69684
H          7.22442        0.26751        2.20165
