1
NA+1.gamout	Energy:    -161.9955195
Na        -7.66140        3.94500       -0.00000
