24
NEOPHYL_CHLORIDE.gamout	Energy:    -848.3864538
Cl        -1.89895        2.24063        0.45050
C         -1.39194       -0.49092       -0.06511
C          0.12763       -0.24470       -0.00753
C         -2.12156        0.76434       -0.58858
C         -1.69108       -1.62176       -1.08329
C         -1.98640       -0.90165        1.29319
C          0.82671        0.11896       -1.17331
C          0.86688       -0.37298        1.17710
C          2.20339        0.34613       -1.15652
C          2.24774       -0.14847        1.19964
C          2.92393        0.21377        0.03431
H         -3.20363        0.58997       -0.62787
H         -1.77179        1.04926       -1.58605
H         -1.19644       -2.55038       -0.76735
H         -1.33214       -1.37735       -2.09140
H         -2.77255       -1.81593       -1.14381
H         -1.53692       -1.83750        1.65131
H         -1.84022       -0.12840        2.05687
H         -3.06715       -1.07013        1.19145
H          0.29527        0.23260       -2.11927
H          0.37272       -0.64838        2.10681
H          2.71520        0.62938       -2.07824
H          2.79348       -0.25465        2.13902
H          4.00048        0.39221        0.05176
