17
NEOPENTANE.gamout	Energy:    -197.4908582
C          1.08139        1.04602        3.31357
C          1.81478        1.76124        2.16348
C          3.33419        1.70654        2.41018
C          1.48590        1.06275        0.83090
C          1.35795        3.23121        2.09854
H          1.38933       -0.00807        3.38500
H          1.29719        1.52532        4.28024
H         -0.00850        1.06788        3.16352
H          3.69204        0.66698        2.46043
H          3.88498        2.21163        1.60248
H          3.59993        2.19936        3.35740
H          1.80026        0.00822        0.84707
H          0.40516        1.08722        0.62484
H          1.99894        1.55274       -0.01040
H          1.58241        3.75770        3.03833
H          1.86574        3.76802        1.28321
H          0.27387        3.30083        1.92370
