14
NICOTINIC_ACID.gamout	Energy:    -436.3342262
C          4.19166       -0.23757       -0.17980
C          2.91639        0.33490       -0.07155
C          4.30330       -1.62483       -0.18154
C          1.80749       -0.52287        0.03053
C          2.78725        1.81847       -0.06872
C          3.13402       -2.38779       -0.07515
N          1.91477       -1.85189        0.02843
O          1.50855        2.24071        0.04247
O          3.71760        2.58773       -0.15535
H          5.06388        0.41226       -0.25987
H          5.27552       -2.11234       -0.26335
H          0.80101       -0.10891        0.11637
H          3.18603       -3.48057       -0.07339
H          1.51983        3.21027        0.03643
