5
NITRIC_ACID.gamout	Energy:    -280.5784340
N          1.79154        1.00114        0.29096
O          2.44618        0.01411        0.44949
O          2.12827        2.16199        0.25756
O          0.42090        0.75948        0.11795
H          0.03713        1.64783        0.00356
