6
NITROGEN_TETROXIDE.gamout	Energy:    -409.7205962
N         -0.10598        1.31756        0.00000
N          1.66708        1.13071        0.00000
O         -0.44642        2.45506        0.00000
O         -0.67609        0.27600       -0.00000
O          2.00752       -0.00681        0.00000
O          2.23719        2.17228       -0.00000
