10
NITROETHANE.gamout	Energy:    -283.9927558
N          0.42844       -0.05075       -0.32992
O          0.68603       -1.12530       -0.84855
O          1.16643        0.56366        0.42362
C         -0.92437        0.54717       -0.61288
C         -1.94068        0.05473        0.41184
H         -0.78679        1.63230       -0.56548
H         -1.18331        0.23234       -1.62915
H         -2.04062       -1.03786        0.36892
H         -1.64971        0.35293        1.42756
H         -2.91899        0.50146        0.18567
