4
NITROUS_ACID.gamout	Energy:    -205.4726778
N          0.94052        0.11505        0.02846
O          0.35789       -0.49136       -1.10579
O          2.10915        0.08602       -0.02591
H         -0.59672       -0.40500       -0.94411
