7
NITROGEN_PENTOXIDE.gamout	Energy:    -484.7937615
O          1.73209        1.58923        0.00001
N          0.46742        0.78534       -0.06545
O         -0.43157        1.39485        0.41401
N          2.99669        0.78526        0.06548
O          3.89574        1.39472       -0.41393
O          0.53646       -0.26443       -0.61777
O          2.92756       -0.26453        0.61775
