15
O-CHLOROBENZOIC_ACID.gamout	Energy:    -879.7149115
C          6.32201        1.82438       -0.60010
C          6.85568        0.55514       -0.29469
C          4.95064        2.03682       -0.69996
C          5.94897       -0.50740       -0.08118
C          8.34004        0.39061       -0.22822
C          4.56982       -0.29277       -0.17614
Cl         6.45697       -2.12834        0.33199
C          4.07139        0.97156       -0.48681
O          8.94682       -0.65080       -0.16019
O          8.98805        1.58396       -0.26442
H          7.01339        2.64803       -0.76375
H          4.56969        3.02965       -0.94203
H          3.89393       -1.12902       -0.00219
H          2.99278        1.12061       -0.55950
H          9.93680        1.38683       -0.23633
