16
O-CRESOL.gamout	Energy:    -346.3482537
C          6.26387        1.99686       -0.68035
C          6.85384        0.77553       -0.33972
C          4.87107        2.11745       -0.70576
C          4.07246        1.01704       -0.39054
C          4.67735       -0.19858       -0.05142
C          6.06885       -0.34938       -0.01764
C          6.73333       -1.65086        0.34631
O          8.21274        0.61065       -0.30020
H          6.89592        2.85467       -0.92555
H          4.41722        3.07334       -0.97245
H          2.98501        1.10123       -0.40743
H          4.05304       -1.06018        0.19534
H          7.38709       -1.53098        1.22394
H          5.98599       -2.42236        0.57241
H          7.37278       -2.01514       -0.47246
H          8.65914        1.43214       -0.53438
