12
O-DIBROMOBENZENE.gamout	Energy:   -5378.2060243
Br         7.43171        3.36771       -1.07284
C          6.33326        1.86272       -0.67127
C          6.87107        0.61036       -0.33688
C          4.94370        2.03064       -0.71756
Br         8.74912        0.29940       -0.25087
C          6.01349       -0.45994       -0.05331
C          4.09436        0.96083       -0.43437
C          4.63004       -0.28635       -0.10194
H          4.53567        3.00693       -0.97752
H          6.43940       -1.42903        0.20551
H          3.01362        1.10582       -0.47469
H          3.97367       -1.12910        0.12077
