24
O-DIETHYLBENZENE.gamout	Energy:    -388.9783385
C          0.08538       -1.32973        0.39041
C         -1.12481       -0.63736        0.39176
C         -1.12985        0.72799        0.09635
C          0.05206        1.42425       -0.19651
C          1.28264        0.72052       -0.20127
C          1.27092       -0.65126        0.09320
H          0.11284       -2.39724        0.61665
H         -2.05988       -1.15349        0.61719
H         -2.07785        1.27140        0.09011
C         -0.02449        2.91568       -0.46325
C          2.57749        1.44492       -0.53765
H          2.20463       -1.21317        0.09259
H         -1.00371        3.14498       -0.91055
H          0.72541        3.21455       -1.20997
C          0.15202        3.77113        0.80374
H          1.12218        3.58208        1.28480
H         -0.63144        3.54115        1.54032
H          0.09349        4.84364        0.56513
H          2.66589        2.33259        0.10874
H          2.49481        1.84743       -1.56184
C          3.86915        0.63374       -0.43090
H          3.88515       -0.20591       -1.14029
H          4.00960        0.22640        0.58087
H          4.73411        1.27277       -0.65539
