20
O-ETHYLANILINE.gamout	Energy:    -365.7555455
C          7.06111        3.83033       -1.82888
C          6.94069        3.27325       -0.39849
C          6.12727        2.00051       -0.29526
C          6.70908        0.73738       -0.56981
C          4.77600        2.04609        0.07068
N          8.06734        0.62860       -0.88018
C          5.92085       -0.42338       -0.45901
C          3.99313        0.89335        0.17598
C          4.57842       -0.34725       -0.09038
H          7.66807        4.74798       -1.84313
H          7.52723        3.10820       -2.51661
H          6.06812        4.06921       -2.23587
H          6.47755        4.04009        0.24010
H          7.94626        3.10412        0.02070
H          4.32912        3.01932        0.28922
H          8.36726       -0.26404       -1.24830
H          8.50193        1.40881       -1.35226
H          6.37548       -1.39586       -0.66387
H          2.94447        0.96417        0.46787
H          3.98973       -1.26324       -0.01103
