29
OCA+1.gamout	Energy:    -370.9113258
N          1.02372        0.15033        0.06486
C          0.52766       -1.18439       -0.47610
C          1.03521       -1.41151       -1.89183
C          0.55253       -2.75628       -2.45628
C          1.04283       -3.01714       -3.88573
C          0.56078       -4.36264       -4.43918
C          1.04173       -4.65579       -5.86496
C          0.55235       -6.00563       -6.40050
C          1.03549       -6.31337       -7.81906
H          0.70088        0.32712        1.02413
H          0.69965        0.92935       -0.52186
H          2.05081        0.18521        0.06996
H         -0.56804       -1.14530       -0.42383
H          0.88501       -1.94878        0.22580
H          2.13841       -1.38619       -1.89894
H          0.68756       -0.59340       -2.54566
H         -0.54963       -2.78407       -2.43751
H          0.89665       -3.57194       -1.79884
H          2.14561       -2.98636       -3.90646
H          0.69730       -2.20273       -4.54502
H         -0.54210       -4.39024       -4.41602
H          0.90050       -5.17209       -3.77046
H          2.14489       -4.63146       -5.89264
H          0.70154       -3.85126       -6.53958
H         -0.55010       -6.02466       -6.37477
H          0.88500       -6.80595       -5.71814
H          0.69309       -5.54862       -8.53279
H          0.65631       -7.28533       -8.16433
H          2.13456       -6.34748       -7.86796
