12
OCTAFLUOROCYCLOBUTANE.gamout	Energy:    -950.0800989
C          4.37204        0.86069        0.54379
F          4.54457        2.14709        0.87675
F          3.24209        0.39349        1.07410
C          5.66482       -0.00171        0.81465
C          4.55430        0.61827       -1.00408
F          5.36753       -1.23811        1.23740
F          6.57488        0.55346        1.61464
C          5.99383        0.03604       -0.72775
F          3.71398       -0.31604       -1.47045
F          4.50592        1.70662       -1.77182
F          6.95917        0.92001       -1.01582
F          6.26152       -1.14036       -1.29369
