42
OXPRENOLOL.gamout	Energy:    -864.7154064
O         -0.18783       -0.82898       -0.89280
O         -2.02713       -0.22606       -3.04375
O          1.86347        0.63476       -0.26870
N         -3.15407        0.44916        0.43063
C         -2.56496        0.74370       -0.86433
C         -2.41815       -0.52746       -1.71154
C         -3.08164        1.51840        1.43321
C         -1.40544       -1.50839       -1.13662
C         -1.66496        1.63103        2.00648
C         -4.10243        1.23465        2.53588
C          0.84235       -1.48592       -0.30950
C          1.97227       -0.68941        0.02139
C          0.86234       -2.85418       -0.02944
C          3.08433       -1.28730        0.61770
C          1.98681       -3.44293        0.56937
C          3.09403       -2.66497        0.88731
C          2.96974        1.48972       -0.01598
C          2.61508        2.86887       -0.48373
C          2.77708        3.97591        0.24487
H         -1.56660        1.17448       -0.72519
H         -3.15803        1.48480       -1.44594
H         -3.38711       -1.06639       -1.71907
H         -3.34157        2.49607        0.97117
H         -4.11758        0.14556        0.31673
H         -1.25612       -2.33003       -1.85608
H         -1.80328       -1.91689       -0.19452
H         -1.61067        2.45923        2.72865
H         -1.39018        0.69793        2.51902
H         -0.91625        1.81998        1.22624
H         -5.12652        1.19589        2.13338
H         -4.07597        2.01829        3.30533
H         -3.88368        0.27008        3.01808
H         -2.58605        0.47397       -3.39895
H          0.00447       -3.47351       -0.28505
H          3.95317       -0.68597        0.87941
H          1.98486       -4.51399        0.77674
H          3.97206       -3.11449        1.35301
H          3.85204        1.11609       -0.56890
H          3.21826        1.49517        1.05915
H          2.21904        2.93082       -1.50207
H          2.54292        4.96130       -0.16057
H          3.15426        3.93642        1.26998
