3
OXYGEN_FLUORIDE.gamout	Energy:    -274.3612600
F         34.01620        9.90402        0.00000
O         32.72154        9.37069        0.00000
F         32.92949        7.98601        0.00000
