5
OZONE.gamout	Energy:    -226.4387014
O          0.15791        0.37171        0.38875
O          1.23682        1.20786       -0.00000
O          2.31557        0.37152       -0.38875
H         -0.25614        0.15343       -0.46472
H          2.72959        0.15317        0.46472
