13
P-CHLOROPHENOL.gamout	Energy:    -766.4975640
C          6.26225        1.85870       -0.48678
C          7.06885        0.76964       -0.13246
C          4.88079        1.70120       -0.58984
C          4.30325        0.45348       -0.33870
C          5.09817       -0.63708        0.01491
Cl         2.56047        0.25463       -0.47009
C          6.48212       -0.47756        0.11772
O          8.41321        0.98253       -0.04679
H          6.72942        2.82489       -0.67913
H          4.25224        2.54772       -0.86541
H          4.64197       -1.60747        0.20924
H          7.10549       -1.33152        0.39455
H          8.87541        0.17415        0.20242
