14
P-CHLORONITROBENZENE.gamout	Energy:    -895.6337693
C          6.35718        1.83136       -0.63835
C          6.89153        0.58802       -0.30639
C          4.96991        1.97825       -0.70433
C          6.02794       -0.48234       -0.04713
C          4.10370        0.91359       -0.44663
N          4.40625        3.29214       -1.05533
C          4.63849       -0.32946       -0.11453
Cl         6.69834       -2.04301        0.36980
O          5.18984        4.20607       -1.27440
O          3.18796        3.39325       -1.10745
H          6.99847        2.68635       -0.84628
H          7.97019        0.44639       -0.24828
H          3.02781        1.06825       -0.50841
H          3.98502       -1.17657        0.09132
