16
P-DINITROBENZENE.gamout	Energy:    -640.4970566
O          6.69875        4.04253       -1.25355
N          7.21553        2.97368       -0.96625
O          8.41843        2.76951       -0.90837
C          6.31479        1.83804       -0.66492
C          6.87762        0.60330       -0.33545
C          4.93440        2.04065       -0.72071
C          6.03050       -0.46637       -0.05189
C          4.08730        0.97098       -0.43708
C          4.65010       -0.26378       -0.10762
N          3.74942       -1.39940        0.19372
O          2.54652       -1.19528        0.13579
O          4.26621       -2.46826        0.48101
H          7.96020        0.49533       -0.30538
H          4.54401        3.02227       -0.98248
H          6.42082       -1.44801        0.20997
H          3.00472        1.07891       -0.46714
