13
P-FLUOROPHENOL.gamout	Energy:    -406.2205045
C          6.32205        1.84758       -0.66718
C          6.86498        0.60878       -0.33639
C          4.94848        2.05156       -0.72388
F          7.15495        2.87952       -0.94083
C          6.00830       -0.45560       -0.05437
C          4.62011       -0.27226       -0.10557
C          4.09341        0.98173       -0.44047
O          3.83151       -1.35114        0.18053
H          7.94791        0.48600       -0.30210
H          4.55614        3.03439       -0.98638
H          6.40202       -1.43789        0.20785
H          3.01128        1.12884       -0.48157
H          2.89794       -1.12005        0.11886
