15
P-HYDROXYBENZOATE-1.gamout	Energy:    -494.9060397
O          3.50170       -0.03182        0.00326
O         -2.79295       -1.13060       -0.00030
O         -2.79985        1.13405       -0.00086
C         -0.70351        0.00670        0.00114
C          0.01585        1.20804        0.00021
C          0.02536       -1.19111       -0.00011
C          2.11867        0.00967       -0.00009
C          1.41501        1.21783       -0.00108
C          1.42325       -1.20104       -0.00014
C         -2.25459        0.00307        0.00008
H         -0.55529        2.13776        0.00239
H         -0.54286       -2.12234        0.00064
H          1.96334        2.16609       -0.00372
H          1.98835       -2.13489       -0.00140
H          3.83961        0.86977       -0.00061
