25
P-N-BUTYLPHENOL.gamout	Energy:    -464.1227960
O         -4.05345        0.03989        0.68890
C          2.39587       -0.02160        0.24485
C          1.41578       -0.06844       -0.94066
C          3.86432        0.02295       -0.18665
C         -0.04010       -0.05810       -0.52961
C          4.84653        0.06848        0.98520
C         -0.76970       -1.24761       -0.39664
C         -0.70584        1.14637       -0.24332
C         -2.10738       -1.24413        0.00961
C         -2.03847        1.16937        0.16402
C         -2.74661       -0.03204        0.29255
H          2.22740       -0.90308        0.88690
H          2.16572        0.85579        0.87279
H          1.61937       -0.97247       -1.53692
H          1.61621        0.79010       -1.60309
H          4.08308       -0.85969       -0.81210
H          4.02503        0.89885       -0.83814
H          4.73345       -0.81541        1.63195
H          4.68277        0.96012        1.61022
H          5.88817        0.09369        0.63345
H         -0.28710       -2.20191       -0.61928
H         -0.16776        2.09168       -0.34645
H         -2.65449       -2.18648        0.10089
H         -2.54884        2.10798        0.38333
H         -4.44208       -0.84078        0.73653
