24
P-PROPYLTOLUENE.gamout	Energy:    -388.9823015
C          0.03158        3.09984       -0.14078
C         -0.06492        3.38719       -1.65070
C          1.28337        3.56657       -2.31170
C          1.93829        4.80671       -2.29412
C          1.94365        2.49172       -2.92726
C          3.20375        4.96631       -2.86460
C          3.20740        2.65170       -3.49977
C          3.86380        3.89207       -3.47979
C          5.21690        4.06512       -4.12807
H         -0.61122        2.56450       -2.13989
H         -0.67285        4.29496       -1.80139
H          1.44889        5.66532       -1.82793
H          1.45816        1.51356       -2.96429
H          3.68654        5.94597       -2.83233
H          3.69443        1.79461       -3.97148
H          5.12323        4.17833       -5.22073
H          5.73531        4.95602       -3.74758
H          5.86247        3.19315       -3.94666
H          0.58059        3.92392        0.34302
H          0.64618        2.19750        0.01143
C         -1.33148        2.92180        0.52916
H         -1.87145        2.05682        0.11335
H         -1.96659        3.80999        0.38451
H         -1.22495        2.76035        1.61166
