26
P-TERT-BUTYLCATECHOL.gamout	Energy:    -539.2587775
O          3.33754        1.43100        0.61099
O          2.12635        3.71647       -0.02679
C         -0.82957       -1.21455       -0.02484
C         -0.08558        0.13455       -0.04096
C         -0.76160       -1.82462        1.39492
C         -0.16879       -2.18262       -1.03423
C         -2.31215       -1.06003       -0.40984
C          1.28326        0.18138        0.28935
C         -0.70122        1.34684       -0.37196
C          2.01231        1.36912        0.29309
C          0.02064        2.54774       -0.37269
C          1.37353        2.57931       -0.04397
H          0.27391       -2.00641        1.71283
H         -1.22719       -1.15469        2.13150
H         -1.29171       -2.78896        1.42481
H         -0.69289       -3.15056       -1.03473
H         -0.20689       -1.77218       -2.05313
H          0.88401       -2.37564       -0.78769
H         -2.80517       -2.04141       -0.38714
H         -2.43046       -0.65389       -1.42415
H         -2.84943       -0.40356        0.28901
H          1.81199       -0.73675        0.55548
H         -1.75571        1.38282       -0.63646
H         -0.48520        3.48081       -0.63525
H          3.67094        0.55229        0.82402
H          1.58722        4.47642       -0.27269
