17
P-TOLUALDEHYDE.gamout	Energy:    -384.4003179
O          2.80558        0.76403        6.93937
C          1.93091        0.55207        6.12539
C          1.94315        1.02660        4.72392
C          0.87333        0.71904        3.87076
C          3.01893        1.78601        4.22677
C          0.87404        1.16014        2.54636
C          3.01367        2.22193        2.90767
C          1.94154        1.91854        2.04328
C          1.95108        2.41170        0.61834
H          1.02668       -0.04214        6.40867
H          0.03555        0.12834        4.24932
H          3.84808        2.01985        4.89619
H          0.03512        0.91200        1.89317
H          3.85337        2.80969        2.52969
H          2.88784        2.13675        0.11009
H          1.11448        1.99807        0.04064
H          1.87509        3.51030        0.58383
