49
PALMITATE-1.gamout	Energy:    -777.8832497
O         -9.58957        0.48272       -0.04339
O         -8.46592       -1.48032       -0.14310
C          1.76929       -0.33255        0.03350
C          0.49736        0.51890        0.06570
C          3.06659        0.47913        0.06778
C         -0.79227       -0.30139       -0.02230
C          4.32818       -0.38719        0.06826
C         -2.07067        0.53755        0.05995
C          5.63154        0.41293        0.03839
C         -3.35688       -0.28244       -0.06884
C          6.88344       -0.46805        0.05059
C         -4.63804        0.54737        0.06150
C          8.19434        0.31729       -0.03519
C         -5.92848       -0.26601       -0.09438
C          9.44452       -0.56741       -0.02148
C         -7.20542        0.56257        0.05067
C         10.75155        0.22162       -0.12450
C         -8.55523       -0.23021       -0.05991
H          1.75479       -1.03353        0.88650
H          1.76387       -0.96160       -0.87394
H          0.48513        1.11961        0.99243
H          0.52168        1.24614       -0.76532
H          3.09339        1.15875       -0.80189
H          3.07003        1.12835        0.96068
H         -0.80148       -1.05491        0.78576
H         -0.79276       -0.87461       -0.96648
H          4.32124       -1.03888        0.95902
H          4.30295       -1.06510       -0.80258
H         -2.04950        1.31251       -0.72785
H         -2.08313        1.08547        1.01933
H          5.64482        1.05217       -0.86162
H          5.65977        1.10211        0.90066
H         -3.35670       -1.07782        0.69752
H         -3.35668       -0.80482       -1.04173
H          6.88429       -1.08386        0.96692
H          6.83001       -1.17969       -0.79192
H         -4.61802        1.35721       -0.69089
H         -4.63904        1.05270        1.04441
H          8.19093        0.92776       -0.95538
H          8.24682        1.03359        0.80374
H         -5.94782       -1.08352        0.64422
H         -5.93325       -0.76747       -1.07633
H          9.38313       -1.28976       -0.85351
H          9.44964       -1.17016        0.90284
H         -7.21232        1.07711        1.02876
H         -7.22970        1.36785       -0.70426
H         10.78781        0.81060       -1.05446
H         11.62731       -0.44454       -0.11574
H         10.85828        0.92542        0.71637
