19
PENTAMETHYLENE_DICYANIDE.gamout	Energy:    -381.7439915
N         -0.02436       36.87623        0.00029
C          1.08675       37.20206        0.00001
C          2.48600       37.63481       -0.00028
C          2.64433       39.16818       -0.00002
C          4.11386       39.59607       -0.00002
C          4.28485       41.11786        0.00011
C          5.76733       41.53856        0.00020
C          5.94783       42.99223        0.00040
N          6.07085       44.14360        0.00040
H          2.97985       37.19949        0.88349
H          2.97946       37.19980       -0.88440
H          2.13331       39.58248       -0.88250
H          2.13332       39.58224        0.88258
H          4.61974       39.16910        0.88308
H          4.61963       39.16931       -0.88330
H          3.78952       41.55092       -0.88236
H          3.78951       41.55072        0.88268
H          6.28130       41.12765        0.88405
H          6.28133       41.12794       -0.88376
