33
PENTMPYR+1.gamout	Energy:    -448.2259236
N          0.41455        0.35562       -0.03308
C         -0.64766        0.90085       -1.00358
C          1.35899        1.53429        0.24235
C          0.98175        2.61793       -0.76144
H          2.39211        1.18553        0.17006
H          1.17764        1.86276        1.27041
C         -0.52649        2.41733       -0.93789
H         -1.62136        0.49211       -0.71990
H         -0.39177        0.53432       -2.00346
H         -1.08423        2.83152       -0.08495
H         -0.92008        2.88421       -1.84770
H          1.50864        2.47276       -1.71583
H          1.24615        3.61389       -0.38716
C         -0.24314       -0.09020        1.23418
H         -0.88548        0.71619        1.59946
H          0.51963       -0.31247        1.98342
H         -0.84471       -0.98211        1.03268
C          1.15455       -0.80351       -0.68856
C          2.13643       -1.56903        0.19601
H          1.66399       -0.36913       -1.55788
H          0.37888       -1.48184       -1.06337
C          2.88507       -2.63306       -0.62529
H          1.60164       -2.07563        1.01251
H          2.86246       -0.88652        0.66139
C          3.75049       -3.57382        0.22485
H          2.15308       -3.24109       -1.18070
H          3.51622       -2.13850       -1.38305
C          4.94154       -2.91222        0.92154
H          4.62721       -2.15599        1.65676
H          5.61000       -2.42463        0.19536
H          5.53496       -3.66057        1.46366
H          3.11344       -4.07558        0.97251
H          4.11882       -4.37123       -0.43561
