13
PENTAFLUOROPHENOL.gamout	Energy:    -802.7276544
C          0.83675        1.40619       -0.37459
C          1.37904        0.16261       -0.04334
C         -0.54877        1.58391       -0.42341
F          1.64445        2.42981       -0.64579
F         -1.06206        2.77278       -0.74014
C         -1.39134        0.50740       -0.13798
C         -0.83672       -0.72826        0.19113
F         -2.71406        0.65968       -0.17992
C          0.54785       -0.92819        0.24583
F         -1.63526       -1.77546        0.46904
O          1.09828       -2.11884        0.56314
F          2.70348        0.01321       -0.00181
H          0.40788       -2.77336        0.73815
