5
PERCHLORYL_FLUORIDE.gamout	Energy:    -784.7697465
Cl        -0.04379        1.79288       -0.08495
F          1.29027        1.78234        0.98660
O          0.19553        3.00629       -0.84907
O         -1.16736        1.83464        0.83662
O          0.14067        0.54336       -0.80479
