20
PERFLUOROHEXANE.gamout	Energy:   -1624.6554140
F          1.23362        0.62001        1.09734
F          1.23362        0.62002       -1.09734
F         -1.23361       -0.62001       -1.09734
F         -1.23361       -0.62001        1.09734
F          0.98000       -2.12798       -1.09738
F          0.98000       -2.12798        1.09738
F         -0.98001        2.12799        1.09738
F         -0.98001        2.12798       -1.09738
F          3.33170       -2.80971       -0.00000
F          3.46958       -0.93947        1.08602
F          3.46958       -0.93947       -1.08603
F         -3.33171        2.80969       -0.00000
F         -3.46958        0.93946       -1.08603
F         -3.46958        0.93946        1.08603
C          0.78735       -0.02143        0.00000
C         -0.78735        0.02144        0.00000
C          1.39684       -1.46916        0.00000
C         -1.39684        1.46916       -0.00000
C          2.96677       -1.52592       -0.00000
C         -2.96678        1.52591       -0.00000
