18
PERFLUOROCYCLOHEXANE.gamout	Energy:   -1425.1653301
C         -3.84708        1.02228        1.14510
F         -3.59036        0.42266        2.31834
F         -2.78322        1.77062        0.79605
C         -5.08403        1.96330        1.31978
C         -4.06379       -0.07694        0.05370
C         -5.60906        2.54172       -0.03583
F         -6.07758        1.26685        1.90419
F         -4.74031        2.98450        2.12040
F         -6.77565        3.16797        0.18503
C         -5.82574        1.44252       -1.12727
F         -4.71273        3.43424       -0.49652
F         -6.88963        0.69421       -0.77822
C         -4.58884        0.50145       -1.30193
F         -6.08243        2.04216       -2.30051
F         -4.93258       -0.51976       -2.10252
F         -3.59526        1.19788       -1.88633
F         -4.96012       -0.96944        0.51443
F         -2.89721       -0.70321       -0.16717
