20
PHENYLETHYLAMINE.gamout	Energy:    -365.7446244
N          3.84657        0.05467       -0.23048
C          1.54996       -0.05258        0.65902
C          0.07099       -0.04169        0.34405
C          2.43225        0.06511       -0.59472
C         -0.59821        1.16231        0.06565
C         -0.66567       -1.23555        0.29300
C         -1.95641        1.17249       -0.26143
C         -2.02553       -1.23029       -0.03182
C         -2.67637       -0.02548       -0.31224
H          1.78812        0.78466        1.33703
H          1.82609       -0.97631        1.18685
H          2.12299        0.96089       -1.16766
H          2.24153       -0.80240       -1.24545
H         -0.04937        2.10594        0.11608
H         -0.16738       -2.18176        0.51609
H         -2.45697        2.11988       -0.47218
H         -2.58007       -2.17051       -0.06202
H         -3.73840       -0.01925       -0.56411
H          4.10213        0.87523        0.31384
H          4.45082        0.02693       -1.04665
