26
PHENACETIN.gamout	Energy:    -593.3631615
O          3.16561        0.55950        0.41029
O         -3.38540        0.90861        0.39815
N         -2.19138       -1.00985        0.01318
C         -0.84867       -0.58166        0.12048
C          1.87995        0.12171        0.30294
C         -0.47319        0.74619        0.40090
C          0.15812       -1.53937       -0.06413
C          0.87396        1.08241        0.48827
C          1.51061       -1.20199        0.02428
C          4.23770       -0.35748        0.23738
C          5.53947        0.40282        0.40706
C         -3.35270       -0.28577        0.14866
C         -4.61679       -1.11305       -0.04044
H         -1.24153        1.49932        0.54665
H         -0.11483       -2.57504       -0.28213
H          1.16974        2.10944        0.70466
H          2.25961       -1.97709       -0.12591
H          4.15711       -1.16879        0.98159
H          4.17983       -0.81371       -0.76640
H         -2.30655       -1.99291       -0.19324
H          5.61652        1.20551       -0.33918
H          5.59782        0.85130        1.40833
H          6.39238       -0.27812        0.27811
H         -4.64623       -1.56427       -1.04411
H         -5.48457       -0.45849        0.08585
H         -4.66731       -1.92808        0.69780
