19
PHENETOLE.gamout	Energy:    -385.5898096
C          1.14339        4.39539        1.49764
O          1.56896        3.19572        0.85757
C          2.86040        2.77207        0.94728
C          0.87103        4.20540        2.98496
C          3.88889        3.47192        1.59758
C          3.14720        1.54842        0.31743
C          5.18650        2.94515        1.60718
C          4.44238        1.03731        0.33705
C          5.47456        1.73150        0.98216
H          0.21798        4.67054        0.97520
H          1.87382        5.20091        1.31727
H          0.49130        5.14304        3.41755
H          0.11550        3.42184        3.13467
H          1.77827        3.91612        3.53233
H          3.69577        4.41818        2.09976
H          2.33478        1.02015       -0.18283
H          5.97821        3.49828        2.11648
H          4.64917        0.08619       -0.15768
H          6.48797        1.32837        0.99711
