17
PHTHALAN.gamout	Energy:    -384.3842269
O          2.47145       -0.00010        0.08277
C          0.24497        0.69849        0.03664
C          0.24493       -0.69858        0.03663
C          1.67055        1.18424        0.06641
C          1.67048       -1.18441        0.06642
C         -0.95373        1.41206        0.01195
C         -0.95382       -1.41207        0.01194
C         -2.15933        0.70087       -0.01285
C         -2.15938       -0.70080       -0.01286
H          1.92830        1.79004       -0.82078
H          1.89146        1.78930        0.96394
H          1.89136       -1.78945        0.96397
H          1.92821       -1.79023       -0.82076
H         -0.95752        2.50411        0.01194
H         -0.95769       -2.50412        0.01193
H         -3.10757        1.24087       -0.03226
H         -3.10763       -1.24078       -0.03232
