19
PICRIC_ACID.gamout	Energy:    -919.9115055
C          6.33781        1.86855       -0.63832
C          6.87425        0.61262       -0.35599
C          4.93043        2.09878       -0.70246
N          7.27102        2.96739       -0.86577
C          6.01078       -0.44470       -0.11350
C          4.10244        0.97097       -0.45408
O          4.39727        3.27477       -0.93839
C          4.62382       -0.27386       -0.14490
N          6.56438       -1.77442        0.18942
N          2.63265        1.09908       -0.50835
O          6.79317        4.09446       -1.08039
O          8.46213        2.74209       -0.83751
O          5.76818       -2.67948        0.38628
O          7.78036       -1.88333        0.22269
O          2.16050        1.80261       -1.38193
O          1.99905        0.45695        0.31548
H          7.95233        0.47273       -0.32216
H          5.13656        3.92316       -1.05579
H          3.95939       -1.10915        0.06908
