38
PINDOLOL.gamout	Energy:    -804.4493236
O          1.15620       -2.67584        0.30804
O          1.39199       -4.43206       -2.03191
N          4.24722       -3.75128       -2.44931
N         -1.04902        1.00722        1.94246
C          2.34155       -4.31758       -0.98477
C          3.37547       -3.26620       -1.39582
C          5.04713       -2.75678       -3.16345
C          1.68845       -3.98405        0.35695
C          0.00925       -0.85104        1.25117
C          0.50536       -2.16933        1.38837
C          5.74177       -3.43843       -4.34467
C          6.05816       -1.99857       -2.28293
C         -0.68412       -0.26211        2.34113
C          0.04331        0.11522        0.18798
C          0.29831       -2.84638        2.59104
C         -0.90146       -0.93542        3.55561
C         -0.61108        1.23163        0.64877
C         -0.39961       -2.22606        3.65523
H          2.86905       -5.28179       -0.84210
H          3.91304       -2.93578       -0.48381
H          2.82541       -2.39058       -1.76807
H          4.32650       -2.02261       -3.56297
H          4.83428       -4.51591       -2.12262
H          2.44410       -4.06174        1.15968
H          0.88744       -4.71291        0.57595
H          6.31221       -2.71348       -4.94224
H          6.44867       -4.20385       -3.98539
H          5.00366       -3.93086       -4.99128
H          5.56620       -1.49286       -1.44041
H          6.59052       -1.23348       -2.86763
H          6.80930       -2.69360       -1.87391
H          0.49311       -0.00800       -0.79169
H          0.67128       -3.85934        2.72981
H          0.79887       -5.17227       -1.86467
H         -1.55815        1.67129        2.50526
H         -1.43700       -0.46799        4.38290
H         -0.80549        2.18087        0.15730
H         -0.54436       -2.78764        4.57963
