27
PROPYL_GALLATE.gamout	Energy:    -763.5093066
C          4.95172        0.31329        1.66377
C          6.22442        0.87731        1.46222
O          4.00027        0.60676        0.73552
C          4.71911       -0.50131        2.77312
C          5.74816       -0.76115        3.69170
C          7.01918       -0.20105        3.49689
C          5.54448       -1.62240        4.88794
C          7.24605        0.60845        2.39008
O          8.44711        1.20556        2.10171
O          6.44413        1.66450        0.38569
O          6.40577       -1.86857        5.70773
O          4.29204       -2.11180        4.97466
C          3.99604       -2.95145        6.10499
C          2.54779       -3.39803        5.99735
C          2.13293       -4.30288        7.15985
H          3.16755        0.17692        0.96002
H          3.73286       -0.93836        2.92813
H          7.80923       -0.41095        4.21928
H          9.11101        0.99036        2.76571
H          7.36351        1.96602        0.39945
H          4.68765       -3.80694        6.10448
H          4.18116       -2.38205        7.02821
H          1.90257       -2.50656        5.96172
H          2.41101       -3.92354        5.03921
H          2.23713       -3.78635        8.12635
H          2.74922       -5.21388        7.19945
H          1.08387       -4.61297        7.05893
