11
PROPANE.gamout	Energy:    -118.9709157
C          3.37258        1.64690        1.32271
C          2.00534        1.07718        0.93626
C          0.94606        1.24304        2.02896
H          3.76716        1.15289        2.22456
H          3.30756        2.72534        1.53669
H          4.10860        1.50956        0.51660
H          1.65468        1.56384        0.01126
H          2.11276        0.00775        0.69120
H         -0.02336        0.82723        1.71677
H          0.79150        2.30561        2.27427
H          1.24808        0.72949        2.95538
