12
PY+1.gamout	Energy:    -248.3335590
N          0.22303        0.73034        0.79552
C          0.61339        1.85857        1.42630
C          0.13529        3.08188        0.98678
C         -0.74206        3.11541       -0.10231
C         -0.62160        0.72442       -0.25785
C         -1.12425        1.92524       -0.73084
H          1.29840        1.74116        2.26483
H          0.44741        3.99462        1.49243
H         -1.12833        4.07040       -0.46163
H         -1.80595        1.92603       -1.58020
H         -0.86644       -0.24582       -0.68702
H          0.58371       -0.16144        1.13099
