11
PYRIDINE.gamout	Energy:    -247.9641230
C          3.11970        3.37918        0.18840
C          3.83532        2.18156        0.16187
C          1.72656        3.32700        0.13055
C          3.12227        0.98200        0.07880
C          1.11085        2.07485        0.04848
N          1.78915        0.92471        0.02311
H          3.63829        4.33728        0.25283
H          4.92510        2.17400        0.20466
H          1.12611        4.23719        0.14831
H          3.65224        0.02526        0.05615
H          0.02060        1.99844        0.00137
