21
RDX.gamout	Energy:    -896.3891762
O          2.77036        0.42370       -1.01946
O         -1.75419        2.19159       -1.02338
O         -2.57893       -1.09154       -1.02558
O          2.23943       -1.68386       -1.01884
O          0.33541        2.78886       -1.01905
O         -1.01904       -2.60505       -1.02388
N          1.34407       -0.33747        0.52281
N         -0.38378        1.34001        0.52207
N         -0.97511       -0.99753        0.52898
N          2.16355       -0.54400       -0.60223
N         -0.61353        2.15183       -0.60396
N         -1.55634       -1.59780       -0.60588
C          0.98961        1.02551        0.89300
C          0.38582       -1.36985        0.89376
C         -1.38784        0.35217        0.89267
H          1.67316        1.73079        0.41824
H          1.06814        1.10724        1.98666
H          0.42006       -1.48239        1.98702
H          0.65301       -2.31398        0.41689
H         -1.50152        0.38333        1.98586
H         -2.33900        0.58870        0.41405
