29
RESVERATROL.gamout	Energy:    -765.4300460
O         -4.95115       -2.13717       -0.18124
O         -4.14971        2.54965        0.20741
O          6.33949       -0.25778        0.00447
C         -1.77604       -0.22625       -0.00623
C          2.15102        0.13738       -0.00273
C         -0.32106       -0.51013       -0.01393
C          0.69575        0.38404        0.00361
C         -2.31811        1.06949        0.09474
C         -2.67431       -1.31351       -0.10085
C         -4.05723       -1.10800       -0.09201
C         -3.70280        1.26327        0.10229
C          2.75524       -1.13802       -0.04738
C          3.02508        1.24639        0.04101
C         -4.58403        0.18163        0.01061
C          4.14253       -1.29278       -0.04513
C          4.41100        1.10846        0.04229
C          4.97756       -0.16853       -0.00009
H         -0.07267       -1.57500       -0.03991
H          0.43131        1.44504        0.02184
H         -1.69504        1.95737        0.17818
H         -2.28262       -2.33068       -0.18093
H          2.14264       -2.03899       -0.08687
H          2.59860        2.24994        0.07407
H         -5.66874        0.32122        0.01825
H          4.58544       -2.29285       -0.07929
H          5.07234        1.97501        0.07620
H         -4.48980       -2.98097       -0.24724
H         -5.11302        2.57736        0.21213
H          6.62728       -1.17708       -0.03300
