15
SALICYLALDEHYDE.gamout	Energy:    -420.2801553
C          6.32775        1.87492       -0.75783
C          6.84539        0.62326       -0.44277
C          4.93985        2.07115       -0.72112
C          4.08398        1.02657       -0.37312
C          4.60921       -0.23369       -0.05585
C          6.00478       -0.44779       -0.08855
O          3.80614       -1.27694        0.28880
C          6.58888       -1.76951        0.24146
O          7.78213       -2.00192        0.22693
H          6.99218        2.69552       -1.03058
H          7.91953        0.43303       -0.46084
H          4.51814        3.04781       -0.96576
H          3.00277        1.18498       -0.34590
H          2.87889       -1.01336        0.27691
H          5.86172       -2.56473        0.51185
