14
SERINE.gamout	Energy:    -398.4922718
C          2.99397        1.89058       -0.06007
C          1.66655        1.19666       -0.37036
C          0.49613        2.00443        0.19037
N          1.66046       -0.17488        0.13186
O          3.19732        2.64634        0.86132
O          3.97139        1.50696       -0.91149
O         -0.68899        1.54834       -0.43772
H          0.66491        3.07645       -0.00897
H          0.45160        1.87217        1.28558
H          2.25556       -0.79309       -0.41036
H          1.92854       -0.23261        1.11124
H          4.79849        1.92981       -0.62963
H         -1.45220        1.99476       -0.05784
H          1.55324        1.14846       -1.46294
