5
SO4-2.gamout	Energy:    -698.4956137
S          0.00037       -0.00014        0.00029
O          1.34961       -0.63932       -0.36328
O          0.10830        0.68222        1.37354
O         -0.37692        1.04775       -1.05765
O         -1.08136       -1.09051        0.04709
