16
TARTARIC_ACID.gamout	Energy:    -606.7113784
O          1.19962        1.14681        1.48283
C          0.66506        1.31069        0.25716
C          0.98525        2.67879       -0.34417
C         -0.33977        3.47648       -0.49559
C         -0.06754        4.70940       -1.35724
O         -0.26768        5.86149       -0.68761
O          0.29652        4.66053       -2.50355
O         -0.00166        0.47491       -0.29678
H         -1.04387        2.84880       -1.06344
O         -0.91521        3.75628        0.75480
H          1.37627        2.49078       -1.35562
O          1.94704        3.41591        0.36638
H          0.94118        0.27258        1.81483
H         -0.05827        6.60065       -1.28020
H         -0.63695        4.63143        1.05282
H          1.90132        3.19278        1.30456
