9
TCB-1.gamout	Energy:    -395.9002596
N          2.76288        0.00018        0.00122
N         -0.92075        2.60533       -0.00120
N         -0.92003       -1.30395        2.25570
N         -0.92170       -1.30278       -2.25564
C          1.60286        0.00016       -0.00102
C         -0.53362        1.51181        0.00010
C         -0.53429       -0.75501        1.30936
C         -0.53507       -0.75593       -1.30850
B         -0.00020        0.00009       -0.00002
