18
TEREPHTHALIC_ACID.gamout	Energy:    -608.6820089
O          1.48455        4.22903        0.17139
C          2.55200        4.90070       -0.31660
O          2.47571        6.05074       -0.68464
C          3.79893        4.08048       -0.34649
C          4.97326        4.67669       -0.83480
C          3.82201        2.74804        0.09563
C          6.15782        3.94876       -0.88077
C          5.00891        2.01876        0.04985
C          6.18236        2.61569       -0.43849
C          7.47565        1.87246       -0.50469
O          7.38194        0.60199       -0.05195
O          8.51472        2.33590       -0.91598
H          0.72808        4.83507        0.15316
H          4.93478        5.71169       -1.17351
H          2.91031        2.28884        0.47344
H          7.07806        4.39534       -1.25634
H          5.03130        0.98563        0.39197
H          8.26077        0.20049       -0.13163
