20
TERT-BUTYL_ACETATE.gamout	Energy:    -385.8486542
O          1.84721        1.19618        0.01592
C          0.48665        0.63066        0.02865
C          2.95071        0.43280       -0.04282
C         -0.39622        1.87837        0.10007
C          0.22989       -0.14314       -1.26798
C          0.29526       -0.24031        1.27461
C          4.19419        1.29181       -0.03946
O          2.95625       -0.77670       -0.09111
H         -1.45573        1.58954        0.11663
H         -0.17703        2.45448        1.00892
H         -0.22531        2.52560       -0.77070
H         -0.82240       -0.45903       -1.30004
H          0.86489       -1.03237       -1.33633
H          0.41914        0.49843       -2.13995
H          0.53502        0.33179        2.18173
H         -0.75553       -0.55619        1.33914
H          0.92766       -1.13333        1.24006
H          4.16976        1.99030       -0.88760
H          4.23071        1.89353        0.87961
H          5.08010        0.65283       -0.10376
