43
TETRADECANOATE-1.gamout	Energy:    -699.3656229
O         -8.32824       -0.60191        0.05013
O         -7.23871        1.38195        0.08439
C          1.75792       -0.46506       -0.01919
C          0.45782        0.34285        0.00150
C          3.02183        0.39859       -0.00651
C         -0.80886       -0.51854       -0.01435
C          4.32319       -0.40657       -0.01782
C         -2.11031        0.28682        0.01946
C          5.57955        0.46795       -0.00942
C         -3.37403       -0.58004       -0.00301
C          6.88677       -0.32853       -0.01437
C         -4.68148        0.21901        0.04608
C          8.14320        0.54743       -0.00726
C         -5.94193       -0.64674        0.01604
C          9.44703       -0.25292       -0.01131
C         -7.30590        0.12818        0.05470
H          1.77564       -1.14739        0.84870
H          1.77038       -1.11312       -0.91301
H          0.44652        0.98836        0.89729
H          0.44140        1.02825       -0.86403
H          3.00893        1.05117        0.88401
H          3.00901        1.07671       -0.87769
H         -0.80045       -1.15823       -0.91473
H         -0.78768       -1.21033        0.84633
H          4.34262       -1.08153        0.85587
H          4.34027       -1.06155       -0.90670
H         -2.13029        0.98201       -0.83866
H         -2.11941        0.92313        0.92196
H          5.55853        1.14014       -0.88509
H          5.55697        1.12587        0.87704
H         -3.33874       -1.28345        0.84917
H         -3.35949       -1.20949       -0.91146
H          6.90727       -0.98753       -0.90026
H          6.90579       -0.99982        0.86216
H         -4.71825        0.92987       -0.79560
H         -4.69927        0.84756        0.95150
H          8.11986        1.21783       -0.88336
H          8.11861        1.20644        0.87751
H         -5.95133       -1.27777       -0.89069
H         -5.94313       -1.35370        0.86502
H         10.32644        0.40818       -0.00614
H          9.51619       -0.89511       -0.90344
H          9.51453       -0.90648        0.87263
