41
TETRAPROPYLAMMONIUM+1.gamout	Energy:    -527.9452655
N          0.00333       -0.00108        0.00138
C          1.52632       -0.09059       -0.06817
C         -0.40287        1.47064       -0.04109
C         -0.51957       -0.61985        1.29560
C         -0.59123       -0.76490       -1.18096
C          2.13969       -1.47847        0.10845
C         -0.11379        2.22263       -1.33942
C          0.08205       -0.09290        2.59711
C         -2.10382       -0.65967       -1.37175
C          3.66880       -1.40992        0.00686
C         -0.56256        3.68536       -1.23031
C         -0.56054       -0.78112        3.80814
C         -2.55784       -1.48544       -2.58244
H          1.80724        0.31283       -1.04589
H          1.90996        0.59719        0.69228
H          0.12227        1.95305        0.78914
H         -1.47299        1.50040        0.18718
H         -0.35605       -1.69871        1.20818
H         -1.60098       -0.45195        1.29506
H         -0.31064       -1.81228       -1.03382
H         -0.06706       -0.40794       -2.07328
H          1.76450       -2.16910       -0.65880
H          1.86853       -1.91150        1.08067
H          0.95907        2.19936       -1.57410
H         -0.63150        1.75830       -2.18921
H         -0.06924        0.99148        2.68563
H          1.16648       -0.26270        2.62771
H         -2.63608       -1.01787       -0.48027
H         -2.41031        0.38383       -1.52256
H          4.08576       -2.41969        0.08519
H          4.10540       -0.80480        0.81375
H          4.00167       -0.98946       -0.95350
H         -0.31766        4.21112       -2.15922
H         -1.64759        3.76963       -1.07631
H         -0.05855        4.21338       -0.40786
H         -0.13334       -0.37037        4.72924
H         -0.37578       -1.86466        3.80982
H         -1.64796       -0.62158        3.84773
H         -3.64476       -1.40512       -2.68996
H         -2.10373       -1.12538       -3.51642
H         -2.31454       -2.55248       -2.47383
