17
TETRAMETHYLSILANE.gamout	Energy:    -448.8310413
Si        -0.00020       -0.00042        0.00029
C         -0.93148       -0.17675       -1.63936
C          0.89645        1.66724        0.04693
C          1.26532       -1.40123        0.15403
C         -1.23013       -0.08861        1.43797
H         -1.46411       -1.13892       -1.69537
H         -1.67694        0.62404       -1.76416
H         -0.24330       -0.12734       -2.49769
H          1.62148        1.75535       -0.77729
H          0.18796        2.50547       -0.04260
H          1.44882        1.79898        0.99053
H          1.82831       -1.33224        1.09797
H          0.77522       -2.38704        0.13109
H          1.99413       -1.37235       -0.67091
H         -0.71911        0.00995        2.40844
H         -1.97821        0.71661        1.37218
H         -1.77208       -1.04716        1.44340
