6
TETRAFLUOROHYDRAZINE.gamout	Energy:    -508.0124722
N          2.32587        1.01001       -0.42666
N          3.57513        1.09229        0.42666
F          1.58865        2.03958        0.10471
F          1.73022       -0.10770        0.10474
F          4.17078        2.21000       -0.10474
F          4.31235        0.06272       -0.10471
