5
TETRACHLOROSILANE.gamout	Energy:   -2129.6043096
Si        -5.25931        4.00868        2.41207
Cl        -6.38538        4.64408        4.01097
Cl        -5.33248        5.41917        0.91745
Cl        -3.30953        3.74291        3.00907
Cl        -6.00980        2.22749        1.70987
