5
TETRAFLUOROMETHANE.gamout	Energy:    -437.0228872
F          1.30550        0.00933        0.24616
C          1.09306        1.26652        0.61330
F          0.91936        1.32025        1.92757
F          0.00809        1.72768        0.00450
F          2.13927        2.00913        0.27491
