21
THEOBROMINE.gamout	Energy:    -640.2995603
N          1.32610        0.03177       -0.44967
C          2.04058       -0.48186       -1.61550
C         -0.04996        0.00221       -0.36280
C          2.06579        0.56369        0.59767
C         -0.73412        0.48915        0.74443
N         -0.90697       -0.48174       -1.29401
O          3.28302        0.61805        0.58049
N          1.32559        1.03899        1.68480
C         -0.06576        1.06101        1.88311
N         -2.07507        0.28516        0.46112
C         -2.11061       -0.29428       -0.76327
O         -0.56404        1.51619        2.90320
C         -3.20286        0.62760        1.31375
H          1.30031       -0.85465       -2.32812
H          2.63796        0.31718       -2.07292
H          2.71811       -1.29133       -1.31524
H          1.88921        1.42229        2.43615
H         -3.04973       -0.56788       -1.23922
H         -4.12763        0.33671        0.80320
H         -3.12841        0.09921        2.27228
H         -3.21502        1.70601        1.51401
