16
THIACYCLOHEXANE.gamout	Energy:    -594.3130272
C         -8.18727       -0.22471       -0.23518
C         -7.10436        0.73451        0.27846
C         -5.68801        0.28543       -0.08459
H         -7.18216        0.82675        1.37375
H         -7.27390        1.74064       -0.13974
S         -5.26157       -1.36112        0.60628
H         -4.93445        0.97580        0.31872
H         -5.55893        0.25726       -1.17877
C         -8.04001       -1.65335        0.30629
H         -8.15604       -0.24950       -1.33888
H         -9.17938        0.16747        0.03654
C         -6.69853       -2.29596       -0.05155
H         -8.85171       -2.28411       -0.09293
H         -8.15221       -1.64558        1.40248
H         -6.59279       -2.39111       -1.14448
H         -6.61291       -3.30380        0.37724
