8
THIAZOLE.gamout	Energy:    -568.6655469
C          7.98933        2.09595       -0.14976
S          9.06131        1.05464        0.75547
N          6.78737        1.63044       -0.30888
C          7.76334       -0.08195        0.91611
C          6.64639        0.40293        0.28726
H          8.33726        3.05427       -0.53541
H          7.89032       -1.02015        1.45033
H          5.68751       -0.11215        0.23558
