13
THIOPHENOL.gamout	Energy:    -629.9665794
S          7.52929        3.20204       -1.01926
C          6.36698        1.88779       -0.67498
C          6.88744        0.62755       -0.34027
C          4.97665        2.06945       -0.72561
C          6.02408       -0.43384       -0.06057
C          4.63813       -0.25479       -0.11111
C          4.12150        1.00062       -0.44482
H          6.62032        4.16221       -1.29814
H          7.96796        0.47662       -0.29928
H          4.55712        3.04333       -0.98368
H          6.44166       -1.40878        0.19823
H          3.96726       -1.08690        0.10770
H          3.04158        1.15521       -0.48804
