10
TRANS-CROTONONITRILE.gamout	Energy:    -209.8778120
N          2.41887       -0.20812       -0.00007
C         -2.54274       -0.00522       -0.00005
C         -1.09682       -0.37882        0.00005
C         -0.07544        0.49646        0.00003
C          1.29789        0.09406        0.00002
H         -3.05065       -0.42686        0.88270
H         -2.68881        1.08347       -0.00014
H         -3.05055       -0.42700       -0.88279
H         -0.86195       -1.44792        0.00013
H         -0.25898        1.57511       -0.00008
