28
TRANS-DECAHYDRONAPHTHALENE.gamout	Energy:    -391.3919989
C         -2.65740       -0.63616        0.14999
C         -1.57483        0.44340        0.23630
C         -0.08428       -1.13351        1.54671
H         -3.65465       -0.17219        0.10720
H         -2.53400       -1.19593       -0.79356
C         -2.57139       -1.61213        1.32748
H         -1.76519        1.08912        1.11211
H         -1.61945        1.09957       -0.64643
C         -0.16827       -0.15524        0.36101
C         -1.16854       -2.21327        1.45005
H         -0.96396       -2.85112        0.57171
H         -1.10861       -2.87086        2.33030
H         -2.81786       -1.07775        2.26135
H         -3.32002       -2.41146        1.21867
C          0.91418        0.92524        0.46227
H          0.02964       -0.74170       -0.55775
C          2.31814        0.32666        0.58268
H          0.70761        1.55832        1.34353
H          0.85334        1.58687       -0.41478
C          1.32133       -1.73283        1.66476
H         -0.27892       -0.54660        2.46589
C          2.40561       -0.65569        1.75425
H          1.50809       -2.37404        0.78492
H          1.36697       -2.39310        2.54354
H          3.40155       -1.12225        1.79036
H          2.28773       -0.10152        2.70188
H          3.06383        1.12751        0.69792
H          2.56844       -0.20066       -0.35422
