18
TRANS-3-HEXENE.gamout	Energy:    -235.5218926
C          1.20624        2.00054        1.60269
C          2.29613        1.35609        2.43614
C          3.70831        1.88221        2.27319
C          2.02059        0.35674        3.28684
C          0.94676        3.47854        1.94051
C          4.31042        1.64505        0.87786
H          1.46396        1.92286        0.53288
H          0.27475        1.43093        1.73639
H          3.72695        2.96438        2.48672
H          4.35217        1.40908        3.02920
H          1.00706       -0.03376        3.40319
H          2.79880       -0.10667        3.89750
H          0.67404        3.59609        2.99955
H          1.83084        4.10359        1.74889
H          0.12267        3.87471        1.32932
H          5.34517        2.01548        0.83623
H          4.32120        0.57284        0.63271
H          3.74190        2.16408        0.09254
