18
TRANS-2-HEXENE.gamout	Energy:    -235.5231448
C          2.84044        1.87043        1.85007
C          1.37469        1.53646        1.92814
C          0.93853        0.86135        3.24552
C          3.70682        1.32850        0.98508
C          1.10631        1.73306        4.49328
C          5.17135        1.64790        0.90069
H          3.21558        2.61372        2.56342
H          1.11154        0.87792        1.08534
H          0.78293        2.46139        1.80049
H          1.50756       -0.07426        3.37002
H         -0.12076        0.57225        3.14902
H          3.33158        0.58909        0.26659
H          0.54851        2.67755        4.39318
H          2.16142        1.98443        4.67552
H          0.73095        1.21610        5.38859
H          5.78575        0.74519        1.05435
H          5.46551        2.39369        1.65315
H          5.43630        2.04276       -0.09443
