16
TRANS,TRANS-2,4-HEXADIENE.gamout	Energy:    -234.3093568
C          0.74103        3.01610        0.67523
C          1.97229        2.44787        1.31346
C          2.13851        2.23491        2.63248
C          3.34244        1.68129        3.23781
C          3.50860        1.46813        4.55680
C          4.73981        0.89981        5.19502
H          0.96981        3.94243        0.12153
H         -0.03150        3.24694        1.42255
H          0.30996        2.31257       -0.05704
H          2.79600        2.18948        0.63726
H          1.32001        2.49016        3.31633
H          4.16097        1.42613        2.55396
H          2.68485        1.72640        5.23300
H          5.51238        0.66906        4.44770
H          5.17090        1.60327        5.92735
H          4.51103       -0.02657        5.74863
