5
TRIBROMOMETHANE.gamout	Energy:   -7759.8386993
C          0.96344        0.87816        0.04350
Br        -0.02019        2.55777       -0.03461
Br         2.89008        1.15726       -0.03444
Br         0.44550       -0.19971        1.58095
H          0.69041        0.31023       -0.84741
