28
TRIETHYLENE_TETRAMINE.gamout	Energy:    -457.8645421
N         -0.04376       -0.14194       -0.00909
C          1.22000        0.58973        0.00709
C          0.96765        2.09598        0.03972
N          2.21386        2.84444        0.05494
C          2.04842        4.29016        0.04398
C          3.39697        5.00384       -0.00716
N          3.23212        6.45016       -0.01534
C          4.48243        7.19477       -0.02895
C          4.23742        8.70289        0.01536
N          5.50533        9.42994        0.00381
H          0.09232       -1.13601       -0.16387
H         -0.55823       -0.03083        0.86107
H          1.77623        0.34724       -0.90994
H          1.87861        0.31896        0.85870
H          0.31556        2.33486        0.91046
H          0.39702        2.37787       -0.85843
H          2.78263        2.56354        0.85141
H          1.46520        4.55530       -0.85446
H          1.47436        4.67197        0.91380
H          3.98288        4.73606        0.88913
H          3.96796        4.62378       -0.87933
H          2.65492        6.72839       -0.80689
H          5.06164        6.89803        0.86256
H          5.11982        6.96404       -0.90731
H          3.67295        8.99813       -0.88435
H          3.59181        8.92819        0.88502
H          5.36892       10.43082       -0.09915
H          6.03169        9.27842        0.86082
