24
TRIETHYLENE_GLYCOL.gamout	Energy:    -537.2642346
C         -3.03834        1.75959        0.55030
C         -3.61749        0.39602        0.89147
O         -2.91679       -0.57737        0.14910
C         -3.35771       -1.89749        0.37570
C         -2.51980       -2.82945       -0.48316
O         -2.96069       -4.14957       -0.25648
C         -2.26033       -5.12295       -0.99917
C         -2.83893       -6.48658       -0.65730
O         -2.12220       -7.45226       -1.41269
O         -3.75545        2.72528        1.30532
H         -1.96273        1.76879        0.79813
H         -3.14211        1.93567       -0.53447
H         -3.51774        0.20946        1.97731
H         -4.69600        0.37686        0.64633
H         -3.24720       -2.17191        1.44161
H         -4.42648       -2.00622        0.11196
H         -2.63037       -2.55508       -1.54908
H         -1.45101       -2.72070       -0.21947
H         -2.36095       -4.93662       -2.08498
H         -1.18163       -5.10351       -0.75487
H         -2.73428       -6.66241        0.42743
H         -3.91473       -6.49605       -0.90428
H         -2.45926       -8.33347       -1.22403
H         -3.41804        3.60644        1.11713
