22
TRIETHYLAMINE.gamout	Energy:    -292.0123199
N          0.35497       -0.19731        0.00007
C          0.79764        0.48425       -1.21003
C          0.79767        0.48435        1.21014
C         -1.04590       -0.61090       -0.00003
C          0.65296       -0.34708       -2.48292
C          0.65304       -0.34709        2.48292
C         -2.09875        0.51053       -0.00009
H          0.29006        1.46423       -1.35555
H          1.86241        0.72007       -1.06792
H          1.86242        0.72006        1.06781
H          0.29015        1.46437        1.35554
H         -1.20655       -1.25867       -0.87221
H         -1.20659       -1.25864        0.87213
H          1.15480        0.16568       -3.31548
H          1.11828       -1.33431       -2.35123
H         -0.39569       -0.49275       -2.77776
H          1.15507        0.16545        3.31547
H         -0.39555       -0.49281        2.77794
H          1.11828       -1.33429        2.35077
H         -2.01150        1.15198        0.88800
H         -2.01130        1.15198       -0.88814
H         -3.10763        0.07433       -0.00019
