5
TRIFLUOROMETHANE.gamout	Energy:    -337.8765976
F         -1.25658       -0.02591        0.10264
C         -0.00001       -0.00002       -0.36436
F          0.60586        1.10108        0.10267
F          0.65075       -1.07516        0.10267
H         -0.00048       -0.00001       -1.46317
