13
TRIMETHYLAMINE.gamout	Energy:    -174.2361661
N         -0.00022       -0.00043        0.30581
C         -0.53871       -1.28276       -0.10273
C         -0.84038        1.10806       -0.10287
C          1.37948        0.17483       -0.10317
H         -1.55574       -1.40605        0.29534
H          0.08532       -2.09578        0.29418
H         -0.58798       -1.39748       -1.21000
H         -1.85769        0.97442        0.29126
H         -0.91264        1.20868       -1.21036
H         -0.43900        2.05001        0.29686
H          1.76964        1.12237        0.29346
H          1.50255        0.19025       -1.21054
H          1.99544       -0.64341        0.29504
