14
TRIMETHYLCHLOROSILANE.gamout	Energy:    -869.0348898
Cl         2.03281       -0.00220       -0.00118
Si        -0.09428        0.00039        0.00043
C         -0.65907       -1.36696       -1.15955
C         -0.65691       -0.32057        1.76536
C         -0.65658        1.68926       -0.60490
H         -0.29663       -2.35176       -0.82971
H         -1.76019       -1.40129       -1.18864
H         -0.29769       -1.19761       -2.18482
H         -0.29396       -1.29251        2.13105
H         -0.29328        0.45849        2.45165
H         -1.75783       -0.32884        1.81229
H         -1.75760        1.73494       -0.62001
H         -0.29300        2.49364        0.05171
H         -0.29374        1.89186       -1.62348
