34
UNDECANOATE-1.gamout	Energy:    -581.5895472
O         -6.43970        0.62500        0.03308
O         -5.36087       -1.36110        0.15006
C          1.07707        0.51422       -0.00556
C          2.33950       -0.35046        0.03007
C         -0.22549       -0.28608        0.05069
C          3.63889        0.45637       -0.02013
C         -1.48755        0.58038        0.00056
C          4.90478       -0.40435        0.00631
C         -2.79729       -0.21226        0.06716
C          6.20534        0.40247       -0.04417
C         -4.05330        0.65761        0.00818
C          7.46445       -0.46817       -0.01957
C         -5.42151       -0.10946        0.07082
H          1.08765        1.13030       -0.92205
H          1.10377        1.22773        0.83700
H          2.31604       -1.05969       -0.81598
H          2.32920       -0.97050        0.94367
H         -0.23419       -0.89547        0.97141
H         -0.24351       -1.00618       -0.78647
H          3.65911        1.16155        0.82933
H          3.64142        1.08067       -0.93092
H         -1.45464        1.30680        0.83334
H         -1.46828        1.18503       -0.92422
H          4.88105       -1.10895       -0.84358
H          4.89998       -1.02904        0.91690
H         -2.83342       -0.94704       -0.75379
H         -2.82161       -0.81468        0.98993
H          6.20836        1.02742       -0.95368
H          6.22810        1.10533        0.80625
H         -4.05923        1.25753       -0.91930
H         -4.05093        1.39217        0.83352
H          7.48474       -1.16065       -0.87598
H          7.50944       -1.07571        0.89804
H          8.38023        0.14113       -0.06194
