12
URACIL.gamout	Energy:    -414.3377892
C         -0.21977        1.40772       -0.20136
C         -1.36758        0.69257       -0.16909
C         -1.31496       -0.75164        0.05064
N         -0.00673       -1.25231        0.21115
N          1.00963        0.81600       -0.03268
C          1.18286       -0.54843        0.18314
H          0.07717       -2.25198        0.36650
H          1.86246        1.35932       -0.05850
H         -0.20453        2.48589       -0.36174
H         -2.33971        1.16020       -0.30242
O         -2.27047       -1.50446        0.10123
O          2.27705       -1.05539        0.33077
