8
UREA.gamout	Energy:    -225.0120391
N          1.22210        0.60626        0.00423
C          2.32588        1.42450       -0.04417
N          3.53613        0.77511        0.01597
O          2.23752        2.63950       -0.13385
H          0.31609        1.04614       -0.03742
H          1.26904       -0.39790        0.07828
H          3.63518       -0.22523        0.09038
H          4.36868        1.34242       -0.01685
