6
VINYL_BROMIDE.gamout	Energy:   -2651.6162635
Br         1.69125        0.58049        0.00000
C          0.10497       -0.47795       -0.00000
C          0.11028       -1.80711       -0.00000
H         -0.79917        0.13090        0.00000
H         -0.84009       -2.34531        0.00000
H          1.03034       -2.39212       -0.00000
