12
VINYL_ACETATE.gamout	Energy:    -306.0990390
O          2.27321        2.68331        0.57962
C          1.20602        1.85351        0.38650
C          2.48382        3.72302       -0.30169
C          1.19757        0.75480        1.41203
O          0.40881        1.99535       -0.50537
C          3.53975        4.51920       -0.15420
H          1.73327        3.81212       -1.08648
H          1.49792        1.13430        2.39669
H          1.93079       -0.01054        1.11423
H          0.20299        0.29890        1.45281
H          3.70006        5.34087       -0.85101
H          4.25796        4.37069        0.65287
