15
VINYL_PROPIONATE.gamout	Energy:    -345.3530111
O          4.33551        2.39657        1.33057
C          3.43850        1.38264        1.17089
C          2.03058        1.93765        1.16208
O          3.73928        0.22259        1.05633
C          5.70751        2.24004        1.38389
C          0.95764        0.86755        0.99052
C          6.44277        1.12947        1.29699
H          1.89565        2.50116        2.09926
H          1.98154        2.69278        0.36112
H          6.15911        3.22316        1.51840
H         -0.04050        1.32616        0.99106
H          1.08991        0.32433        0.04522
H          1.00143        0.13027        1.80337
H          6.02598        0.13674        1.16373
H          7.52402        1.24766        1.36654
