23
XANTHONE.gamout	Energy:    -649.8524487
O         -2.20704        0.18373       -2.59557
C         -2.25884        0.49220       -1.41092
C         -2.22767       -0.50862       -0.32114
C         -2.35870        1.89454       -0.94988
C         -2.29091       -0.09878        1.02314
C         -2.13505       -1.88605       -0.60193
C         -2.41539        2.18843        0.42522
C         -2.39931        2.96129       -1.86891
O         -2.38214        1.21402        1.37757
C         -2.26309       -1.03346        2.06755
C         -2.10699       -2.81923        0.42447
C         -2.51043        3.51091        0.87986
C         -2.49328        4.27379       -1.42909
C         -2.17153       -2.38660        1.76206
C         -2.54878        4.54445       -0.04893
H         -2.08643       -2.18410       -1.64956
H         -2.35448        2.71403       -2.92994
H         -2.31443       -0.67950        3.09715
H         -2.03548       -3.88369        0.19784
H         -2.55237        3.70102        1.95232
H         -2.52426        5.09361       -2.14771
H         -2.14973       -3.11756        2.57227
H         -2.62320        5.57552        0.30112
