

 Distributed Data Interface kickoff program.
 Initiating 1 compute processes on 1 nodes to run the following command:
 /home/servidor/src/gamess/gamess.00.x 2-CHLOROPHENOL 

          ******************************************************
          *      GAMESS VERSION = 30 JUN 2019 R1 Patch 1       *
          *             FROM IOWA STATE UNIVERSITY             *
          * M.W.SCHMIDT, K.K.BALDRIDGE, J.A.BOATZ, S.T.ELBERT, *
          *   M.S.GORDON, J.H.JENSEN, S.KOSEKI, N.MATSUNAGA,   *
          *          K.A.NGUYEN, S.J.SU, T.L.WINDUS,           *
          *       TOGETHER WITH M.DUPUIS, J.A.MONTGOMERY       *
          *         J.COMPUT.CHEM.  14, 1347-1363(1993)        *
          **************** 64 BIT LINUX VERSION ****************

  EXECUTION OF GAMESS BEGUN Mon Nov  1 12:28:04 2021

            ECHO OF THE FIRST FEW INPUT CARDS -
 INPUT CARD>! SELECT RESTRICTED HARTREE-FOCK AS DEFAULT                                     
 INPUT CARD> $contrl scftyp=rhf $end                                                        
 INPUT CARD>                                                                                
 INPUT CARD>! THEORY: HF OR DFT                                                             
 INPUT CARD> $contrl mplevl=0 $end                                                          
 INPUT CARD>                                                                                
 INPUT CARD> $system timlim=10000 mwords=20 $end                                            
 INPUT CARD> $SCF DIRSCF=.TRUE. $end                                                        
 INPUT CARD>                                                                                
 INPUT CARD>! BASIS SETS                                                                    
 INPUT CARD>! KTZVP                                                                         
 INPUT CARD> $contrl ISPHER=1 $END                                                          
 INPUT CARD> $BASIS GBASIS=KTZVP $END                                                       
 INPUT CARD>                                                                                
 INPUT CARD>! One of the following                                                          
 INPUT CARD> $guess guess=HUCKEL $end                                                       
 INPUT CARD>                                                                                
 INPUT CARD> $statpt projct=.FALSE. $end                                                    
 INPUT CARD> $STATPT IFREEZ(1)=1,2,3 $END                                                   
 INPUT CARD>                                                                                
 INPUT CARD>! Optimize the geometry with COSMO effects                                      
 INPUT CARD> $statpt opttol=0.0005 nstep=50 $end                                            
 INPUT CARD> $contrl runtyp=OPTIMIZE maxit=200 $end                                         
 INPUT CARD>                                                                                
 INPUT CARD>! Run COSMO on perfect conductor                                                
 INPUT CARD> $COSGMS PRFCND=.TRUE. $end                                                     
 INPUT CARD>                                                                                
 INPUT CARD>! Specifying RSOLV                                                              
 INPUT CARD> $COSGMS COSRAD = 1.4 $end                                                      
 INPUT CARD>                                                                                
 INPUT CARD>! available memory                                                              
 INPUT CARD> $SYSTEM MWORDS=500 $END                                                        
 INPUT CARD>                                                                                
 INPUT CARD>! Internal Coordinates                                                          
 INPUT CARD> $CONTRL nzvar=1 $END                                                           
 INPUT CARD> $zmat dlc=.t. auto=.t. $END                                                    
 INPUT CARD> $SYSTEM MWORDS=500 $END                                                        
 INPUT CARD>                                                                                
 INPUT CARD> $DATA                                                                          
 INPUT CARD>                                                                                
 INPUT CARD>C1                                                                              
 INPUT CARD>Cl    17.0      2.2504000000   -1.2349000000    0.0376000000                    
 INPUT CARD>O      8.0      1.3986000000    1.6330000000    0.1105000000                    
 INPUT CARD>C      6.0      0.3638000000    0.7690000000    0.0574000000                    
 INPUT CARD>C      6.0      0.6069000000   -0.6135000000    0.0181000000                    
 INPUT CARD>C      6.0     -0.9585000000    1.2416000000    0.0408000000                    
 INPUT CARD>C      6.0     -0.4666000000   -1.5110000000   -0.0371000000                    
 INPUT CARD>C      6.0     -2.0263000000    0.3408000000   -0.0144000000                    
 INPUT CARD>C      6.0     -1.7805000000   -1.0343000000   -0.0533000000                    
 INPUT CARD>H      1.0     -1.1594000000    2.3051000000    0.0706000000                    
  500000000 WORDS OF MEMORY AVAILABLE

     ---------
                                                                                 

 THE POINT GROUP OF THE MOLECULE IS C1      
 THE ORDER OF THE PRINCIPAL AXIS IS     0

 ATOM      ATOMIC                      COORDINATES (BOHR)
           CHARGE         X                   Y                   Z
 CL         17.0     4.2526393628       -2.3336226222        0.0710536971
 O           8.0     2.6429707664        3.0859225379        0.2088147216
 C           6.0     0.6874823143        1.4531992846        0.1084702717
 C           6.0     1.1468747019       -1.1593468935        0.0342040404
 C           6.0    -1.8113023592        2.3462837864        0.0771008203
 C           6.0    -0.8817461459       -2.8553759674       -0.0701088341
 C           6.0    -3.8291517689        0.6440186166       -0.0272120542
 C           6.0    -3.3646571211       -1.9545435891       -0.1007223951
 H           1.0    -2.1909483102        4.3560073743        0.1334146547
 H           1.0    -0.5359262901       -4.8709577060       -0.1273675316
 H           1.0    -5.7527038518        1.3392488075       -0.0510226017
 H           1.0    -4.9285943486       -3.2701708218       -0.1814136948
 H           1.0     2.3976843332        4.8976028424        0.2621049945

          INTERNUCLEAR DISTANCES (ANGS.)
          ------------------------------

                1 CL         2 O          3 C          4 C          5 C     

   1 CL      0.0000000    2.9926122 *  2.7523203 *  1.7571598 *  4.0534062  
   2 O       2.9926122 *  0.0000000    1.3491207 *  2.3837133 *  2.3903917 *
   3 C       2.7523203 *  1.3491207 *  0.0000000    1.4042608 *  1.4043161 *
   4 C       1.7571598 *  2.3837133 *  1.4042608 *  0.0000000    2.4274242 *
   5 C       4.0534062    2.3903917 *  1.4043161 *  2.4274242 *  0.0000000  
   6 C       2.7320140 *  3.6586190    2.4283522 *  1.4003412 *  2.7972917 *
   7 C       4.5580366    3.6626931    2.4292156 *  2.8009796 *  1.3981003 *
   8 C       4.0369119    4.1530707    2.8039558 *  2.4252524 *  2.4216233 *
   9 H       4.9152238    2.6451228 *  2.1633113 *  3.4118614    1.0827193 *
  10 H       2.8696732 *  4.5376864    3.4109285    2.1582375 *  3.8798822  
  11 H       5.6404382    4.5400120    3.4095782    3.8833977    2.1537697 *
  12 H       4.8855389    5.2354006    3.8862863    3.4054270    3.4019513  
  13 H       3.9517879    0.9678579 *  2.0366320 *  3.2750516    2.6063806 *

                6 C          7 C          8 C          9 H         10 H     

   1 CL      2.7320140 *  4.5580366    4.0369119    4.9152238    2.8696732 *
   2 O       3.6586190    3.6626931    4.1530707    2.6451228 *  4.5376864  
   3 C       2.4283522 *  2.4292156 *  2.8039558 *  2.1633113 *  3.4109285  
   4 C       1.4003412 *  2.8009796 *  2.4252524 *  3.4118614    2.1582375 *
   5 C       2.7972917 *  1.3981003 *  2.4216233 *  1.0827193 *  3.8798822  
   6 C       0.0000000    2.4212275 *  1.3977977 *  3.8799730    1.0826092 *
   7 C       2.4212275 *  0.0000000    1.3974372 *  2.1487706 *  3.3995398  
   8 C       1.3977977 *  1.3974372 *  0.0000000    3.3989276    2.1500426 *
   9 H       3.8799730    2.1487706 *  3.3989276    0.0000000    4.9625426  
  10 H       1.0826092 *  3.3995398    2.1500426 *  4.9625426    0.0000000  
  11 H       3.4016455    1.0824184 *  2.1530626 *  2.4719405 *  4.2921221  
  12 H       2.1535254 *  2.1530057 *  1.0823306 *  4.2909853    2.4742063 *
  13 H       4.4581012    3.9934539    4.7416211    2.4460034 *  5.4013041  

               11 H         12 H         13 H     

   1 CL      5.6404382    4.8855389    3.9517879  
   2 O       4.5400120    5.2354006    0.9678579 *
   3 C       3.4095782    3.8862863    2.0366320 *
   4 C       3.8833977    3.4054270    3.2750516  
   5 C       2.1537697 *  3.4019513    2.6063806 *
   6 C       3.4016455    2.1535254 *  4.4581012  
   7 C       1.0824184 *  2.1530057 *  3.9934539  
   8 C       2.1530626 *  1.0823306 *  4.7416211  
   9 H       2.4719405 *  4.2909853    2.4460034 *
  10 H       4.2921221    2.4742063 *  5.4013041  
  11 H       0.0000000    2.4788386 *  4.7090460  
  12 H       2.4788386 *  0.0000000    5.8109251  
  13 H       4.7090460    5.8109251    0.0000000  

  * ... LESS THAN  3.000


     
     ---------------------------
     ATOM         COORDINATES           RADIUS 
     1    4.2526   -2.3336    0.0711    2.0500
     2    2.6430    3.0859    0.2088    1.7200
     3    0.6875    1.4532    0.1085    2.0000
     4    1.1469   -1.1593    0.0342    2.0000
     5   -1.8113    2.3463    0.0771    2.0000
     6   -0.8817   -2.8554   -0.0701    2.0000
     7   -3.8292    0.6440   -0.0272    2.0000
     8   -3.3647   -1.9545   -0.1007    2.0000
     9   -2.1909    4.3560    0.1334    1.3000
    10   -0.5359   -4.8710   -0.1274    1.3000
    11   -5.7527    1.3392   -0.0510    1.3000
    12   -4.9286   -3.2702   -0.1814    1.3000
    13    2.3977    4.8976    0.2621    1.3000

          ----------------
          
       ***** EQUILIBRIUM GEOMETRY LOCATED *****
            (SUBJECT TO   3 CONSTRAINT(S))
 COORDINATES OF ALL ATOMS ARE (ANGS)
   ATOM   CHARGE       X              Y              Z
 ------------------------------------------------------------
 CL         17.0   2.2229422519  -1.2211216099   0.0374011205
 O           8.0   1.4410636969   1.6254864795   0.1112591898
 C           6.0   0.3725555611   0.7901845636   0.0582519747
 C           6.0   0.5816089724  -0.5921582764   0.0181781377
 C           6.0  -0.9502079590   1.2170593128   0.0402299316
 C           6.0  -0.4689490037  -1.5014661794  -0.0368570565
 C           6.0  -1.9965428097   0.3094435479  -0.0146745156
 C           6.0  -1.7741376552  -1.0510904888  -0.0537136764
 H           1.0  -1.1800043462   2.2649159780   0.0688631290
 H           1.0  -0.2925746779  -2.5626544391  -0.0671541133
 H           1.0  -3.0071096557   0.6667373073  -0.0274358691
 H           1.0  -2.6026407372  -1.7397153935  -0.0962181081
 H           1.0   1.2306639321   2.5548963665   0.1367111764


                     --------------------
                     INTERNAL COORDINATES
                     --------------------

                 - - ATOMS - -         COORDINATE      COORDINATE
 NO.   TYPE    I  J  K  L  M  N        (BOHR,RAD)       (ANG,DEG)
 ----------------------------------------------------------------
   1 STRETCH   1  4                     3.3218025       1.7578223
   2 STRETCH   2 13                     1.8014140       0.9532673
   3 STRETCH   2  3                     2.5649149       1.3572946
   4 STRETCH   3  5                     2.6268212       1.3900540
   5 STRETCH   3  4                     2.6430377       1.3986354
   6 STRETCH   4  6                     2.6276990       1.3905185
   7 STRETCH   5  7                     2.6195702       1.3862170
   8 STRETCH   5  9                     2.0279409       1.0731402
   9 STRETCH   6  8                     2.6093550       1.3808113
  10 STRETCH   6 10                     2.0336703       1.0761721
  11 STRETCH   7 11                     2.0256832       1.0719454
  12 STRETCH   7  8                     2.6062062       1.3791450
  13 STRETCH   8 12                     2.0374263       1.0781597
  14 BEND      1  4  6                  2.0622384     118.1575545
  15 BEND      1  4  3                  2.0862059     119.5307906
  16 BEND      2  3  5                  2.1659567     124.1001758
  17 BEND      2  3  4                  2.0848366     119.4523372
  18 BEND      3  2 13                  2.0123047     115.2965674
  19 BEND      3  5  7                  2.1149811     121.1794935
  20 BEND      3  4  6                  2.1347411     122.3116547
  21 BEND      3  5  9                  2.0981863     120.2172211
  22 BEND      4  3  5                  2.0323921     116.4474869
  23 BEND      4  6 10                  2.1201335     121.4747002
  24 BEND      4  6  8                  2.0959306     120.0879751
  25 BEND      5  7  8                  2.1238700     121.6887862
  26 BEND      5  7 11                  2.0872854     119.5926438
  27 BEND      6  8 12                  2.1159080     121.2326006
  28 BEND      6  8  7                  2.0644558     118.2846036
  29 BEND      7  5  9                  2.0700178     118.6032854
  30 BEND      7  8 12                  2.1028215     120.4827958
  31 BEND      8  6 10                  2.0671213     118.4373246
  32 BEND      8  7 11                  2.0720299     118.7185701
  33 TORSION   1  4  6  8               3.1415501     179.9975644
  34 TORSION   1  4  3  2               0.0001288       0.0073820
  35 TORSION   1  4  6 10               0.0000014       0.0000797
  36 TORSION   1  4  3  5              -3.1415264    -179.9962023
  37 TORSION   2  3  5  9              -0.0000434      -0.0024885
  38 TORSION   2  3  5  7               3.1415283     179.9963105
  39 TORSION   2  3  4  6              -3.1415540    -179.9977878
  40 TORSION   3  5  7 11              -3.1415816    -179.9993687
  41 TORSION   3  4  6 10              -3.1415022    -179.9948183
  42 TORSION   3  4  6  8               0.0000465       0.0026664
  43 TORSION   3  5  7  8              -0.0000013      -0.0000737
  44 TORSION   4  6  8  7              -0.0000445      -0.0025503
  45 TORSION   4  3  5  7               0.0000014       0.0000797
  46 TORSION   4  3  5  9              -3.1415703    -179.9987193
  47 TORSION   4  3  2 13              -3.1413705    -179.9872716
  48 TORSION   4  6  8 12               3.1415594     179.9980965
  49 TORSION   5  3  2 13               0.0002898       0.0166039
  50 TORSION   5  7  8 12              -3.1415810    -179.9993321
  51 TORSION   5  3  4  6              -0.0000239      -0.0013721
  52 TORSION   5  7  8  6               0.0000229       0.0013097
  53 TORSION   6  8  7 11              -3.1415820    -179.9993892
  54 TORSION   7  8  6 10               3.1415056     179.9950101
  55 TORSION   8  7  5  9               3.1415707     179.9987442
  56 TORSION   9  5  7 11              -0.0000096      -0.0005509
  57 TORSION  10  6  8 12              -0.0000758      -0.0043431
  58 TORSION  11  7  8 12              -0.0000005      -0.0000310

          COSab RESULTS
 =====================================================

   Dielectric Constant                  = INFTY
   Basic Grid Size                      =                 1082
   Number of Segments                   =                   92
   Number of Segments located on spheres=                  266
   Number of Segments of the cavity     =                  577
   Solvent Radius (rsolv)               = 1.40
   Outlying Charge Error Method         = double cavity

 =====================================================

  Total solvated Energy (a.u.)          =  -764.5887853097
  Total Energy corrected (a.u.)         =  -764.5890900712

  Outlying charge effect (a.u.)         =    -0.0003047615
  Outlying charge effect (kcal/mol)     =    -0.1912408986

  Dielectric Energy (a.u.)              =    -0.0172705723
  Dielectric energy corr. (a.u.)        =    -0.0175753338

  Sum of polarization charges           =     0.0239417501
  Sum of polarization charges(cor.)     =    -0.0239417501

  Total surface area of cavity (A**2)   =  148.20
  Total volume of cavity (A**3)         =  142.55

 =====================================================
 NPS=                   577
NR.  ATOM  (X, Y, Z)(a.u.)                  CHARGE(e)  AREA(A**2) SIGMA(e/A**2)
   1   1   7.856820  -3.588148   0.098631  -0.002778   0.536887  -0.005175
   2   1   6.655399  -1.101192   2.814158   0.002617   0.439271   0.005958
   3   1   7.004461   0.120139  -1.048604   0.002833   0.488079   0.005804
   4   1   5.933016  -2.945861  -3.335105   0.003033   0.488079   0.006214
   5   1   4.801096  -5.992517  -0.962924   0.002774   0.488079   0.005684
   6   1   5.039821  -4.726017   2.978346   0.002757   0.439271   0.006276
   7   1   7.832541  -2.823994   1.316013  -0.001654   0.585695  -0.002825
   8   1   7.438849  -1.778788   2.130410   0.000927   0.488079   0.001900
   9   1   8.059479  -2.231402  -0.263790  -0.001617   0.585695  -0.002760
  10   1   7.758647  -0.928660  -0.598188   0.001021   0.488079   0.002092
  11   1   7.603744  -3.527902  -1.321426  -0.001756   0.585695  -0.002998
  12   1   6.832907  -3.545924  -2.487792   0.000984   0.536887   0.001832
  13   1   7.180735  -4.742689  -0.373666  -0.001992   0.536887  -0.003710
  14   1   6.145154  -5.588480  -0.609397   0.000344   0.488079   0.000705
  15   1   7.256815  -4.425255   1.158519  -0.002347   0.683311  -0.003435
  16   1   6.315176  -4.755963   2.201891   0.000897   0.585695   0.001531
  17   1   7.068593  -0.345859   1.783715   0.002506   0.439271   0.005704
  18   1   7.327120  -0.030779   0.292896   0.002715   0.439271   0.006180
  19   1   7.131237  -0.817548  -1.978590   0.002476   0.488079   0.005073
  20   1   6.633027  -1.916185  -2.919025   0.002951   0.536887   0.005497
  21   1   5.562346  -4.328190  -2.941084   0.003370   0.585695   0.005753
  22   1   5.225360  -5.383689  -2.049522   0.003042   0.585695   0.005193
  23   1   4.877223  -6.113003   0.332644   0.002799   0.536887   0.005214
  24   1   5.016126  -5.647900   1.855300   0.003157   0.585695   0.005390
  25   1   5.744395  -3.740229   3.322150   0.003717   0.634503   0.005858
  26   1   6.398618  -2.289746   3.260730   0.003197   0.585695   0.005459
  27   1   6.069317  -0.094645   2.643363   0.003241   0.390463   0.008301
  28   1   6.303997  -0.083847  -2.303935   0.002981   0.341655   0.008726
  29   1   5.028001  -0.221035  -3.086759   0.002258   0.390463   0.005783
  30   1   4.279224  -0.929601  -3.549053   0.002085   0.390463   0.005340
  31   1   5.069866  -1.870680  -3.679152   0.004385   0.585695   0.007487
  32   1   4.615177  -3.406184  -3.621045   0.004360   0.585695   0.007444
  33   1   3.394722  -3.593746  -3.493529   0.002486   0.439271   0.005659
  34   1   3.165903  -4.779790  -2.726599   0.001792   0.292848   0.006118
  35   1   3.788657  -5.691677  -1.769313   0.003237   0.439271   0.007370
  36   1   3.729718  -6.140655  -0.234517   0.002521   0.341655   0.007378
  37   1   3.360394  -5.367112   2.293396   0.002715   0.390463   0.006954
  38   1   3.936388  -4.997983   2.845430   0.002891   0.390463   0.007403
  39   1   4.181839  -3.887113   3.607921   0.003540   0.488079   0.007252
  40   1   3.427637  -2.801584   3.834397   0.002676   0.488079   0.005482
  41   1   4.022188  -1.223048   3.785407   0.002948   0.585695   0.005034
  42   1   5.493130  -1.170321   3.541085   0.003584   0.488079   0.007344
  43   1   7.849384  -1.286744   0.878629   0.000468   0.585695   0.000800
  44   1   7.590167  -2.152367  -1.798879   0.000455   0.683311   0.000665
  45   1   6.553034  -4.800188  -1.735199   0.000174   0.585695   0.000297
  46   1   6.141333  -5.578355   0.808008   0.000400   0.634503   0.000631
  47   1   7.040195  -3.346916   2.492403   0.000432   0.585695   0.000737
  48   1   6.870732   0.265414   1.192400   0.001117   0.195232   0.005721
  49   1   5.955256  -0.884992  -3.076608   0.002843   0.390463   0.007280
  50   1   4.144377  -4.805973  -2.889451   0.003548   0.488079   0.007269
  51   1   3.826883  -5.972787   1.268147   0.003253   0.439271   0.007405
  52   1   4.912149  -2.479092   3.874865   0.004847   0.634503   0.007638
  53   1   3.653351  -2.216260  -3.763311   0.002485   0.488079   0.005092
  54   1   3.064002  -3.989553   3.370091   0.001758   0.341655   0.005147
  55   1   4.862485  -0.314912   3.326240   0.001463   0.292848   0.004995
  56   2   4.900422   2.782528   2.606238   0.003791   0.240512   0.015762
  57   2   5.760391   3.093395  -0.947227   0.003788   0.206154   0.018373
  58   2   5.180700   4.976909   1.156631   0.000493   0.274871   0.001792
  59   2   3.924164   4.896239  -2.196719   0.001853   0.343589   0.005392
  60   2   2.811797   4.532502   3.112466   0.001237   0.240512   0.005143
  61   2   3.752433   2.333813   3.203713   0.002356   0.137436   0.017146
  62   2   5.171045   5.203327   0.039952  -0.000618   0.274871  -0.002248
  63   2   4.766063   5.144518  -1.237134   0.000436   0.309230   0.001409
  64   2   3.054417   4.676669  -2.596722   0.001289   0.240512   0.005358
  65   2   2.178436   4.511710  -2.652317   0.000252   0.171795   0.001466
  66   2   1.972142   4.315399   3.117782   0.000189   0.137436   0.001373
  67   2   3.710686   4.723086   2.829885   0.001173   0.240512   0.004878
  68   2   4.521473   4.943090   2.166994   0.000706   0.309230   0.002284
  69   2   5.414003   3.169993   2.030863   0.003684   0.240512   0.015319
  70   2   5.336873   4.135939   1.822965   0.003697   0.377948   0.009781
  71   2   5.740606   4.250955   0.473666   0.003970   0.481025   0.008253
  72   2   5.937047   3.342870  -0.192752   0.003411   0.274871   0.012411
  73   2   5.407690   3.373606  -1.597269   0.004271   0.309230   0.013812
  74   2   4.838088   4.193164  -1.988461   0.004694   0.412307   0.011384
  75   2   3.785121   3.897572  -2.748633   0.004265   0.343589   0.012414
  76   2   3.605252   2.862621  -2.911122   0.004493   0.309230   0.014531
  77   2   2.593932   3.655213   3.405155   0.002024   0.206154   0.009816
  78   2   3.535315   3.839144   3.262488   0.003165   0.274871   0.011514
  79   2   4.185950   3.001802   3.111996   0.004508   0.274871   0.016400
  80   2   5.878402   3.149443   0.987035   0.005848   0.377948   0.015472
  81   2   4.639618   3.004403  -2.414163   0.006788   0.377948   0.017961
  82   2   3.228426   2.899726   3.416461   0.002435   0.206154   0.011812
  83   2   5.490898   4.433025  -0.815139   0.003244   0.412307   0.007868
  84   2   2.758191   3.742090  -2.970008   0.002429   0.240512   0.010097
  85   2   4.591594   3.961324   2.716716   0.004558   0.377948   0.012060
  86   3  -0.097409   0.687677   3.714674   0.000392   0.092912   0.004220
  87   3   0.679170   3.368369   3.391467  -0.000264   0.139368  -0.001892
  88   3   1.621843   2.238415  -3.479699  -0.000138   0.139368  -0.000994
  89   3   1.118323   2.575272   3.707554   0.000055   0.139368   0.000397
  90   3   2.246453   1.462290   3.560332  -0.000041   0.139368  -0.000295
  91   3   2.367842   1.680465  -3.278263  -0.000100   0.232280  -0.000429
  92   3   0.901184   3.419669  -3.135557  -0.000237   0.139368  -0.001701
  93   3   0.594266   2.573049   3.730332  -0.000016   0.185824  -0.000087
  94   3   0.168494   1.473742   3.851353   0.000397   0.232280   0.001709
  95   3   0.827073   0.947626   3.847924   0.000263   0.185824   0.001414
  96   3   1.783962   1.113578   3.712009  -0.000118   0.139368  -0.000844
  97   3   1.534578   1.375498  -3.575098  -0.000113   0.325193  -0.000348
  98   3   0.875260   2.604078  -3.498369  -0.000005   0.325193  -0.000015
  99   3   0.390071   1.342435  -3.653285   0.001011   0.418105   0.002418
 100   3   1.317297   1.831582   3.824067  -0.000405   0.325193  -0.001245
 101   4   1.359994  -2.026600  -3.625210   0.000388   0.139368   0.002786
 102   4   1.894605  -0.565776  -3.618762   0.000471   0.232280   0.002030
 103   4   1.530088  -1.323480  -3.714862   0.000522   0.185824   0.002808
 104   4   0.795841  -1.262343  -3.730179   0.000460   0.139368   0.003303
 105   4   0.370363  -0.949271   3.739011   0.001759   0.371649   0.004734
 106   4   1.790899  -0.699360   3.726180   0.000418   0.232280   0.001801
 107   4   1.254710  -1.885895   3.731919   0.001276   0.418105   0.003051
 108   4   0.715315  -0.559577  -3.683705   0.001150   0.232280   0.004952
 109   5  -1.747429   1.280128   3.714976   0.000786   0.139368   0.005638
 110   5  -3.643049   3.665250   3.077223   0.000924   0.278737   0.003315
 111   5  -0.771406   4.369487   3.068031  -0.000004   0.139368  -0.000029
 112   5  -2.156350   4.060963  -3.248559   0.001621   0.418105   0.003877
 113   5  -2.634080   4.825129  -2.608108   0.000507   0.325193   0.001559
 114   5  -1.179575   4.950177   2.699165  -0.000119   0.232280  -0.000510
 115   5  -3.950661   4.410653   2.353066   0.000004   0.278737   0.000015
 116   5  -4.538773   4.550897  -1.224951  -0.000355   0.092912  -0.003816
 117   5  -2.812611   4.012900   3.287833   0.001131   0.325193   0.003478
 118   5  -1.515984   4.197155   3.332795   0.000634   0.232280   0.002728
 119   5  -1.020867   4.439263  -2.941788   0.000853   0.418105   0.002039
 120   5  -3.372921   4.016048  -2.899092   0.001173   0.325193   0.003606
 121   5  -4.132513   4.211970  -2.197147   0.000258   0.092912   0.002775
 122   5  -2.876655   2.885444   3.649932   0.002036   0.325193   0.006262
 123   5  -2.208900   2.048980   3.824425   0.001203   0.232280   0.005180
 124   5  -1.499240   2.259051   3.843616   0.001521   0.232280   0.006550
 125   5  -1.036243   3.400518   3.611031   0.001024   0.278737   0.003672
 126   5  -1.270561   3.183759  -3.560921   0.002546   0.511017   0.004983
 127   5  -2.648689   3.038990  -3.530958   0.002060   0.371649   0.005543
 128   5  -1.359114   5.105640  -2.418295   0.000124   0.278737   0.000445
 129   5  -2.348339   4.630037   2.999948   0.000703   0.325193   0.002163
 130   5  -3.821053   4.611747  -2.123379  -0.000040   0.185824  -0.000216
 131   5  -1.645363   1.879540  -3.676968   0.002925   0.464561   0.006297
 132   5  -1.909429   3.267677   3.727703   0.001236   0.278737   0.004436
 133   6  -0.859508  -1.729938  -3.683130   0.000414   0.092912   0.004458
 134   6  -1.918665  -4.755151  -3.158395   0.000588   0.278737   0.002110
 135   6  -0.838182  -4.679055   3.230356   0.000772   0.371649   0.002077
 136   6  -0.948914  -5.491810   2.619987  -0.000039   0.278737  -0.000140
 137   6   0.628829  -5.147018  -2.649288  -0.000202   0.139368  -0.001449
 138   6  -1.970895  -5.569520  -2.445143  -0.000322   0.278737  -0.001154
 139   6  -2.674318  -5.957238   1.093588  -0.000449   0.092912  -0.004829
 140   6  -1.007723  -4.768863  -3.316006   0.000620   0.325193   0.001907
 141   6   0.405890  -4.405485  -3.256476   0.000324   0.325193   0.000996
 142   6   0.243528  -4.567808   3.094763   0.000403   0.371649   0.001083
 143   6  -1.889071  -5.048123   2.827058   0.000674   0.325193   0.002072
 144   6  -2.479877  -5.503056   2.084040   0.000198   0.092912   0.002128
 145   6  -1.462589  -3.740941  -3.693958   0.001438   0.325193   0.004422
 146   6  -1.192891  -2.489707  -3.820569   0.000974   0.232280   0.004191
 147   6  -0.352219  -2.547861  -3.799986   0.000941   0.185824   0.005064
 148   6   0.210824  -3.528097  -3.619832   0.000587   0.232280   0.002526
 149   6  -0.285921  -3.505179   3.601576   0.001658   0.511017   0.003245
 150   6  -1.615657  -3.879706   3.489220   0.001508   0.371649   0.004059
 151   6   0.309895  -5.372945   2.464993  -0.000152   0.232280  -0.000654
 152   6  -0.365976  -5.173879  -2.994435   0.000135   0.325193   0.000416
 153   6  -2.038962  -5.758552   2.033186  -0.000086   0.185824  -0.000462
 154   6  -1.167922  -2.473589   3.681680   0.002235   0.418105   0.005344
 155   6  -0.589898  -3.530235  -3.773225   0.001024   0.325193   0.003150
 156   7  -3.024256   0.106261   3.645794   0.000752   0.139368   0.005399
 157   7  -6.023306  -0.249170   2.891953   0.000751   0.278737   0.002693
 158   7  -5.305973   2.651206   2.740617   0.000718   0.278737   0.002576
 159   7  -5.268148   1.152776  -3.452042   0.001058   0.371649   0.002847
 160   7  -6.158246   1.395615  -2.844995   0.000460   0.371649   0.001237
 161   7  -5.615827   3.690394  -1.142603  -0.000238   0.092912  -0.002558
 162   7  -5.711256   3.116639   2.001220   0.000052   0.278737   0.000185
 163   7  -6.789868  -0.120966   2.136572  -0.000025   0.278737  -0.000091
 164   7  -7.079054  -0.564806  -1.453293  -0.000313   0.092912  -0.003368
 165   7  -5.888742   0.640773   3.103464   0.000864   0.325193   0.002656
 166   7  -5.363194   1.839721   3.162929   0.000617   0.232280   0.002657
 167   7  -5.454264   3.255818  -2.106854  -0.000035   0.232280  -0.000149
 168   7  -5.062186   2.356130  -3.107387   0.001251   0.418105   0.002993
 169   7  -5.944854   0.134958  -3.087901   0.000920   0.325193   0.002828
 170   7  -6.673950  -0.274931  -2.292507   0.000222   0.185824   0.001194
 171   7  -4.979708  -0.006545   3.504726   0.001629   0.325193   0.005011
 172   7  -3.924456   0.120368   3.720017   0.001009   0.232280   0.004345
 173   7  -3.729314   0.834159   3.743228   0.001478   0.232280   0.006361
 174   7  -4.444942   1.828450   3.477385   0.001004   0.278737   0.003600
 175   7  -4.103978   1.478558  -3.685024   0.002468   0.511017   0.004829
 176   7  -4.708946   0.231583  -3.672370   0.001650   0.371649   0.004439
 177   7  -5.745948   2.509286  -2.613769   0.000265   0.232280   0.001142
 178   7  -6.145681   1.456009   2.782099   0.000553   0.371649   0.001488
 179   7  -6.581927   0.405662  -2.549963   0.000006   0.139368   0.000039
 180   7  -3.190068   0.471562  -3.760258   0.002572   0.464561   0.005536
 181   7  -4.797175   1.017171   3.584491   0.000993   0.278737   0.003563
 182   8  -2.603470  -1.240451  -3.730095   0.000779   0.139368   0.005588
 183   8  -5.687464  -1.814879  -3.068563   0.001047   0.325193   0.003219
 184   8  -3.913480  -4.426404  -2.932659   0.000890   0.278737   0.003193
 185   8  -4.755623  -3.071547   3.235883   0.001564   0.371649   0.004209
 186   8  -5.450985  -3.566226   2.616037   0.000832   0.325193   0.002557
 187   8  -4.069491  -5.395520   1.363919  -0.000189   0.092912  -0.002034
 188   8  -4.307385  -4.860050  -2.362942   0.000169   0.185824   0.000910
 189   8  -6.000638  -2.589367  -2.729928   0.000449   0.278737   0.001610
 190   8  -7.048910  -1.930101   0.685090  -0.000472   0.092912  -0.005085
 191   8  -6.559109  -1.942660  -2.101728  -0.000072   0.185824  -0.000388
 192   8  -5.070675  -2.659511  -3.399885   0.001261   0.325193   0.003877
 193   8  -4.223004  -3.680368  -3.365967   0.000850   0.232280   0.003660
 194   8  -4.147188  -5.033834   1.987846   0.000187   0.185824   0.001004
 195   8  -4.223143  -4.194117   2.839921   0.001137   0.325193   0.003496
 196   8  -5.767921  -2.277488   2.790890   0.001404   0.371649   0.003778
 197   8  -6.703774  -2.068111   1.644210   0.000154   0.185824   0.000827
 198   8  -4.482083  -1.811898  -3.704023   0.002010   0.325193   0.006180
 199   8  -3.437390  -1.564040  -3.856330   0.001238   0.232280   0.005330
 200   8  -3.006579  -2.166120  -3.860770   0.001716   0.232280   0.007389
 201   8  -3.336186  -3.644579  -3.497671   0.000999   0.232280   0.004302
 202   8  -3.613514  -2.855910   3.567285   0.002382   0.418105   0.005698
 203   8  -4.585313  -1.966289   3.471233   0.002142   0.418105   0.005124
 204   8  -4.685600  -4.500827   2.385373   0.000408   0.232280   0.001755
 205   8  -3.857455  -5.357104  -1.734569  -0.000276   0.139368  -0.001982
 206   8  -5.015500  -3.662825  -3.052485   0.000899   0.325193   0.002766
 207   8  -6.900652  -1.846775  -1.396266  -0.000128   0.092912  -0.001379
 208   8  -6.276554  -2.598399   2.213740   0.000283   0.232280   0.001218
 209   8  -3.120512  -1.698481   3.659828   0.002853   0.418105   0.006825
 210   8  -3.793393  -2.772088  -3.771984   0.001839   0.371649   0.004948
 211   8  -3.501028  -3.719153   3.254005   0.001277   0.232280   0.005498
 212   9  -2.999931   6.604631   0.326585  -0.005231   0.510320  -0.010250
 213   9  -1.740889   6.226444  -1.286784  -0.002863   0.353299  -0.008105
 214   9  -2.749901   5.860062   1.937988  -0.002205   0.353299  -0.006240
 215   9  -4.262185   5.570817   0.618865  -0.002576   0.274788  -0.009375
 216   9  -3.584508   5.717304  -1.330855  -0.001985   0.294415  -0.006742
 217   9  -1.934863   6.714075  -0.023918  -0.004695   0.431809  -0.010873
 218   9  -1.932829   6.340677   1.434279  -0.004870   0.490692  -0.009925
 219   9  -3.644809   5.904347   1.311170  -0.003847   0.471065  -0.008168
 220   9  -3.985599   5.919933  -0.383148  -0.004691   0.510320  -0.009193
 221   9  -2.723191   6.246441  -1.257374  -0.003739   0.451437  -0.008283
 222  10  -0.448767  -7.268355  -0.501797  -0.005047   0.471065  -0.010713
 223  10   0.208232  -6.536191   1.481801  -0.003344   0.412182  -0.008114
 224  10  -0.360499  -6.537288  -1.895109  -0.002871   0.392554  -0.007313
 225  10  -1.962507  -6.776317  -0.682998  -0.002872   0.294415  -0.009756
 226  10  -1.283189  -6.684324   1.325749  -0.002514   0.372926  -0.006741
 227  10   0.656150  -6.967679   0.113693  -0.004312   0.412182  -0.010461
 228  10   0.538424  -6.676842  -1.343526  -0.004758   0.490692  -0.009696
 229  10  -1.289821  -6.804903  -1.408255  -0.003319   0.392554  -0.008454
 230  10  -1.664096  -6.994424   0.285940  -0.004597   0.471065  -0.009759
 231  10  -0.370393  -7.120674   0.774593  -0.003881   0.392554  -0.009886
 232  11  -7.982129   2.123948  -0.022864  -0.006037   0.608459  -0.009921
 233  11  -6.939213   2.910587  -1.367682  -0.002733   0.412182  -0.006630
 234  11  -6.743791   3.351666   0.678709  -0.002569   0.333671  -0.007700
 235  11  -7.368583   1.660879   1.689387  -0.002108   0.353299  -0.005966
 236  11  -7.865277   0.171109   0.240634  -0.002886   0.333671  -0.008649
 237  11  -7.569808   0.816658  -1.560850  -0.001948   0.314043  -0.006204
 238  11  -7.042593   3.287176  -0.327323  -0.004094   0.490692  -0.008344
 239  11  -7.303356   2.600742   1.217240  -0.003687   0.490692  -0.007514
 240  11  -7.879920   0.955705   1.003813  -0.003983   0.510320  -0.007804
 241  11  -8.017864   0.745762  -0.615172  -0.004234   0.490692  -0.008628
 242  11  -7.519989   1.964200  -1.522619  -0.004229   0.549575  -0.007695
 243  12  -6.838711  -4.819064  -0.221900  -0.006141   0.608459  -0.010093
 244  12  -6.915360  -3.493172  -1.597631  -0.002577   0.392554  -0.006565
 245  12  -7.287440  -3.092018   0.437821  -0.002590   0.353299  -0.007332
 246  12  -6.195264  -4.521317   1.515914  -0.002056   0.353299  -0.005821
 247  12  -5.102543  -5.726113   0.052032  -0.002950   0.372926  -0.007910
 248  12  -5.593633  -5.008605  -1.799556  -0.002456   0.412182  -0.005960
 249  12  -7.343170  -3.417598  -0.553469  -0.004243   0.490692  -0.008647
 250  12  -6.949347  -3.985869   1.010768  -0.003811   0.490692  -0.007767
 251  12  -5.824992  -5.325120   0.848421  -0.003951   0.510320  -0.007743
 252  12  -5.628086  -5.550070  -0.824008  -0.004077   0.510320  -0.007990
 253  12  -6.509602  -4.429048  -1.665011  -0.003754   0.471065  -0.007969
 254  13   1.842798   7.233811   0.377973  -0.010074   0.451437  -0.022314
 255  13   3.464456   6.418987  -1.227296  -0.006892   0.412182  -0.016721
 256  13   3.893361   6.489805   1.161606  -0.007785   0.431809  -0.018029
 257  13   1.856373   5.972633   2.380797  -0.008138   0.471065  -0.017276
 258  13   1.580761   6.192528  -1.643895  -0.006480   0.314043  -0.020634
 259  13   3.168898   7.128066   0.074101  -0.009590   0.451437  -0.021244
 260  13   2.703690   6.971116   1.398273  -0.009229   0.451437  -0.020443
 261  13   1.431782   6.757715   1.488195  -0.010615   0.471065  -0.022534
 262  13   1.404736   6.937807  -0.599571  -0.007989   0.333671  -0.023943
 263  13   2.415654   6.964928  -0.950285  -0.008009   0.392554  -0.020401
 264  13   4.095168   6.490372  -0.116531  -0.007214   0.412182  -0.017501
 265  13   3.129822   6.165399   2.155672  -0.005831   0.372926  -0.015635
 266  13   2.464973   6.120681  -1.826082  -0.004547   0.314043  -0.014479
 267   1   3.753570   0.617384  -2.791600   0.000183   0.118550   0.001543
 268   2   3.482191   1.591807  -2.722306   0.000780   0.118550   0.006581
 269   3   3.161292   1.291838  -2.843674   0.000029   0.118550   0.000246
 270   1   3.611550   0.425707   3.092249   0.000175   0.118550   0.001480
 271   2   3.342296   1.403000   3.073487   0.000840   0.118550   0.007085
 272   3   3.016392   1.096275   3.159478   0.000023   0.118550   0.000194
 273   2   3.927077   1.669223   3.065492   0.003683   0.333427   0.011047
 274   2   5.225364   2.050356   2.120054   0.011101   0.670426   0.016557
 275   2   5.939554   2.294719   0.262567   0.011266   0.670426   0.016804
 276   2   5.316101   2.172818  -1.639140   0.011126   0.670426   0.016595
 277   2   4.065488   1.856028  -2.668838   0.003782   0.333427   0.011343
 278   1   4.906473   0.445004   2.848059   0.004799   0.755106   0.006355
 279   1   6.270394   0.860238   1.283176   0.007367   0.755106   0.009756
 280   1   6.321450   0.929145  -0.832055   0.007328   0.755106   0.009704
 281   1   5.035188   0.618723  -2.484546   0.005046   0.755106   0.006683
 282   1   3.204842  -0.146558  -3.165299  -0.000169   0.061945  -0.002732
 283   3   2.596190   0.514255  -3.154392  -0.000238   0.061945  -0.003836
 284   4   2.678261   0.068500  -3.208109  -0.000195   0.061945  -0.003154
 285   1   3.046123  -0.360546   3.388686  -0.000166   0.061945  -0.002683
 286   3   2.437667   0.300531   3.391463  -0.000231   0.061945  -0.003724
 287   4   2.517748  -0.147906   3.419912  -0.000202   0.061945  -0.003267
 288   3   2.627594   0.696476   3.451611  -0.000094   0.193339  -0.000486
 289   1   3.592908  -0.155569   3.430284   0.000257   0.196520   0.001307
 290   3   2.879198   0.996243  -3.133770  -0.000072   0.193120  -0.000374
 291   1   3.661567  -0.023513  -3.212653   0.000302   0.196297   0.001540
 292   1   2.128767  -2.974572  -3.302674  -0.000020   0.062600  -0.000322
 293   4   1.594525  -2.779120  -3.345312  -0.000007   0.062600  -0.000109
 294   6   1.244068  -3.066587  -3.323184   0.000029   0.062600   0.000455
 295   1   1.969288  -3.189379   3.289433  -0.000046   0.062600  -0.000733
 296   4   1.433303  -2.996274   3.318841  -0.000042   0.062600  -0.000669
 297   6   1.084776  -3.281141   3.261153   0.000019   0.062600   0.000304
 298   4   2.548586  -0.625569  -3.437081  -0.000190   0.264338  -0.000717
 299   4   1.963224  -2.155398  -3.511713   0.000031   0.264338   0.000118
 300   1   3.016730  -1.683501  -3.435424  -0.000139   0.542307  -0.000256
 301   4   1.792515  -2.385377   3.543083  -0.000025   0.264290  -0.000094
 302   4   2.378286  -0.855125   3.596613  -0.000210   0.264290  -0.000794
 303   1   2.847680  -1.911308   3.548710   0.000006   0.542202   0.000011
 304   1   2.086889  -5.152783  -2.039259   0.000011   0.072938   0.000157
 305   6   1.213508  -5.297368  -2.115792  -0.000338   0.072938  -0.004632
 306  10   1.143438  -5.531424  -1.941518  -0.000467   0.072938  -0.006400
 307   1   1.991909  -5.280650   1.886506  -0.000030   0.072938  -0.000407
 308   6   1.116079  -5.428531   1.911192  -0.000339   0.072938  -0.004647
 309  10   1.054878  -5.650648   1.718884  -0.000550   0.072938  -0.007546
 310   6   1.146251  -3.683735  -3.293536   0.000188   0.346124   0.000542
 311   6   1.254393  -4.907370  -2.594240  -0.000253   0.346124  -0.000732
 312   1   2.459863  -4.155410  -2.893446   0.000935   0.704266   0.001328
 313   6   1.133192  -5.070557   2.415396  -0.000310   0.346110  -0.000895
 314   6   0.989476  -3.894881   3.186734   0.000146   0.346110   0.000421
 315   1   2.321619  -4.341577   2.820752   0.001032   0.704236   0.001465
 316  10   1.185039  -5.929209  -1.691110  -0.001204   0.229475  -0.005249
 317  10   1.381621  -6.388910  -0.522377  -0.003597   0.462597  -0.007776
 318  10   1.221839  -6.208139   1.002422  -0.003436   0.462597  -0.007428
 319   1   2.723078  -5.743412  -1.397531   0.002348   0.659823   0.003558
 320   1   2.823759  -6.070146   0.372440   0.002576   0.659823   0.003904
 321   1   2.536595  -5.638655   1.744972   0.001190   0.334451   0.003557
 322   2   0.980972   4.201101   2.861957  -0.000472   0.041016  -0.011504
 323   3   0.593609   3.989197   2.957435  -0.000420   0.041016  -0.010234
 324   5   0.157637   4.104558   2.915350  -0.000345   0.041016  -0.008421
 325   2   1.109032   4.373921  -2.443277  -0.000448   0.041016  -0.010923
 326   3   0.727054   4.169284  -2.570894  -0.000423   0.041016  -0.010318
 327   5   0.289380   4.282348  -2.542456  -0.000362   0.041016  -0.008823
 328   3   1.194786   3.835761  -2.827410  -0.000565   0.173098  -0.003265
 329   3   2.260905   2.488664  -3.090223   0.000691   0.339388   0.002035
 330   2   2.117963   3.690022  -2.817376   0.001065   0.328606   0.003240
 331   2   3.151103   2.375703  -2.931900   0.001325   0.158120   0.008380
 332   3   2.511608   1.754240   3.429980   0.000452   0.173099   0.002612
 333   3   1.445301   3.123804   3.342493  -0.000271   0.339389  -0.000798
 334   2   2.603069   2.679267   3.332211   0.002852   0.328608   0.008680
 335   2   1.587151   3.993005   3.108721  -0.000092   0.158121  -0.000581
 336   2   1.132408   4.639688   2.646089  -0.000997   0.077468  -0.012868
 337   5   0.311288   4.514772   2.636988  -0.001088   0.077468  -0.014041
 338  13   1.113977   4.936231   2.506534  -0.001555   0.077468  -0.020079
 339   2   1.248959   4.798527  -2.191261  -0.000981   0.077468  -0.012667
 340   5   0.428550   4.674581  -2.229883  -0.001126   0.077468  -0.014537
 341  13   1.223366   5.085312  -2.033612  -0.001259   0.077468  -0.016249
 342   5  -0.038355   4.314571   2.966445  -0.000071   0.063332  -0.001126
 343   2   1.137146   4.476880   2.853687  -0.000098   0.057308  -0.001717
 344   5   0.088878   4.531411  -2.564096  -0.000150   0.063814  -0.002353
 345   2   1.271041   4.612569  -2.434500  -0.000114   0.057745  -0.001966
 346  13   1.763588   5.244122   2.609081  -0.001178   0.086576  -0.013608
 347  13   2.986470   5.525671   2.436716  -0.002917   0.188470  -0.015476
 348  13   4.131841   5.811758   1.457768  -0.003346   0.188470  -0.017756
 349  13   4.420475   5.918238  -0.044700  -0.003507   0.188470  -0.018609
 350  13   3.724707   5.798013  -1.406137  -0.002857   0.188470  -0.015158
 351  13   2.352280   5.504260  -2.024371  -0.002887   0.188470  -0.015315
 352   2   2.338139   4.938092   2.756246  -0.001805   0.185172  -0.009748
 353   2   3.852689   5.296672   2.181952  -0.001978   0.185172  -0.010682
 354   2   4.675096   5.521811   0.758851  -0.002716   0.185172  -0.014666
 355   2   4.441603   5.513928  -0.883609  -0.002449   0.185172  -0.013228
 356   2   3.255486   5.276510  -2.018957  -0.001884   0.185172  -0.010174
 357   2   1.961308   4.991149  -2.296781  -0.000904   0.099127  -0.009124
 358   3  -0.650045   0.296828   3.446560   0.000149   0.050474   0.002956
 359   4  -0.571550  -0.150059   3.398898   0.000098   0.050474   0.001936
 360   5  -1.076316   0.446022   3.406392   0.000137   0.050474   0.002717
 361   3  -0.485632   0.518962  -3.358699   0.000128   0.050474   0.002528
 362   4  -0.408824   0.069796  -3.336534   0.000105   0.050474   0.002071
 363   5  -0.913579   0.665892  -3.329503   0.000127   0.050474   0.002513
 364   4   0.335836  -0.124866  -3.521376   0.000738   0.209490   0.003523
 365   4   1.928715   0.113399  -3.430747   0.000074   0.209490   0.000353
 366   3   1.032001   0.638269  -3.406755   0.000124   0.429824   0.000289
 367   4   1.758329  -0.116421   3.608499   0.000080   0.209457   0.000381
 368   4   0.163546  -0.357539   3.606366   0.000598   0.209457   0.002856
 369   3   0.863113   0.410327   3.575506   0.000149   0.429750   0.000346
 370   5  -0.198670   3.901106  -2.950882  -0.000169   0.191970  -0.000882
 371   5  -0.772263   2.103309  -3.434987   0.001352   0.391220   0.003455
 372   3   0.204426   3.025736  -3.178527  -0.000428   0.391220  -0.001093
 373   3  -0.381957   1.195319  -3.496599   0.000562   0.191970   0.002925
 374   5  -1.172202   1.162107   3.624670   0.000881   0.191996   0.004589
 375   5  -0.573969   3.008656   3.455087   0.000374   0.391277   0.000955
 376   3  -0.324452   1.673993   3.620412   0.000763   0.391277   0.001950
 377   3   0.269063   3.498816   3.282556  -0.000529   0.191996  -0.002756
 378   4  -0.862155  -0.065499  -3.248622   0.000022   0.101300   0.000221
 379   5  -1.370228   0.526805  -3.298116   0.000237   0.101300   0.002343
 380   7  -1.716313   0.231859  -3.297722   0.000272   0.101300   0.002684
 381   4  -1.019905  -0.278628   3.280587   0.000022   0.101300   0.000214
 382   5  -1.530707   0.309991   3.344011   0.000264   0.101300   0.002608
 383   7  -1.875904   0.016243   3.307700   0.000280   0.101300   0.002762
 384   5  -1.153679   0.680859  -3.430562   0.000112   0.025797   0.004360
 385   4  -0.448927  -0.182032  -3.437724   0.000120   0.025797   0.004665
 386   5  -1.335873   0.442244   3.491766   0.000112   0.025799   0.004341
 387   4  -0.601259  -0.395383   3.486151   0.000105   0.025799   0.004085
 388   4  -0.958547  -0.767387   3.304134   0.000162   0.101556   0.001591
 389   6  -1.306026  -1.062882   3.304552   0.000231   0.101556   0.002279
 390   7  -1.812722  -0.470011   3.255226   0.000146   0.101556   0.001441
 391   4  -0.798996  -0.551875  -3.300985   0.000185   0.101556   0.001817
 392   6  -1.145585  -0.846168  -3.337413   0.000265   0.101556   0.002613
 393   7  -1.655002  -0.256973  -3.274063   0.000147   0.101556   0.001443
 394   6  -0.553323  -1.497238  -3.576414   0.000969   0.209631   0.004621
 395   6   0.508722  -2.724695  -3.569031   0.000654   0.209631   0.003118
 396   4   0.466843  -1.687277  -3.495722   0.001661   0.430527   0.003857
 397   6   0.337931  -2.954875   3.492914   0.000575   0.209599   0.002743
 398   6  -0.725012  -1.729008   3.528918   0.000858   0.209599   0.004093
 399   4   0.298082  -1.914908   3.485379   0.001650   0.430455   0.003833
 400   7  -1.861418   0.061293  -3.450525   0.000070   0.011299   0.006187
 401   4  -0.646289  -0.371682  -3.435299   0.000062   0.011299   0.005468
 402   7  -2.030423  -0.170793   3.441589   0.000072   0.011268   0.006380
 403   4  -0.810300  -0.589466   3.457403   0.000057   0.011268   0.005038
 404   5  -4.819837   4.450346   0.805473  -0.000158   0.010380  -0.015216
 405   7  -5.132641   4.126263   0.778174  -0.000148   0.010380  -0.014298
 406   9  -4.663829   4.696234   0.751317  -0.000166   0.010380  -0.016012
 407   5  -4.784484   4.498058  -0.656909  -0.000161   0.010380  -0.015553
 408   7  -5.097731   4.173378  -0.665912  -0.000150   0.010380  -0.014486
 409   9  -4.631660   4.739649  -0.579383  -0.000152   0.010380  -0.014692
 410   7  -5.245951   3.859726  -1.200723  -0.000676   0.192215  -0.003518
 411   7  -4.400147   2.976987  -2.726843   0.000682   0.391880   0.001741
 412   7  -2.904229   1.299914  -3.511313   0.002188   0.391880   0.005582
 413   5  -4.459350   3.977873  -1.792257  -0.001083   0.391880  -0.002762
 414   5  -3.202212   2.619139  -3.288648   0.002071   0.391880   0.005285
 415   5  -1.923132   1.158760  -3.522958   0.000918   0.192215   0.004775
 416   7  -2.583675   0.502773   3.556976   0.001093   0.192220   0.005686
 417   7  -3.852287   1.977364   3.356888   0.001860   0.391890   0.004745
 418   7  -5.037910   3.432721   1.893257  -0.001039   0.391890  -0.002651
 419   5  -2.585582   1.494052   3.558538   0.002460   0.391890   0.006277
 420   5  -4.044576   3.221071   2.813738   0.000722   0.391890   0.001841
 421   5  -4.817146   4.202719   1.309301  -0.000867   0.192220  -0.004511
 422   5  -0.661946   5.426965   1.982617  -0.000896   0.077243  -0.011602
 423   9  -0.822401   5.617840   1.817605  -0.000821   0.077243  -0.010628
 424  13   0.193276   5.691371   1.792699  -0.001908   0.077243  -0.024700
 425   5  -0.576016   5.542766  -1.565693  -0.000786   0.077243  -0.010179
 426   9  -0.744564   5.722734  -1.396545  -0.000909   0.077243  -0.011764
 427  13   0.268603   5.792884  -1.317817  -0.001983   0.077243  -0.025669
 428   9  -4.406752   5.021887   0.996172  -0.000587   0.064874  -0.009046
 429   9  -3.722008   5.149859   1.808378  -0.001078   0.143379  -0.007521
 430   9  -2.526767   5.400150   2.241237  -0.001024   0.143379  -0.007143
 431   9  -1.499715   5.630637   2.048959  -0.000523   0.064874  -0.008057
 432   5  -4.301217   4.699175   1.466556  -0.001140   0.142736  -0.007989
 433   5  -3.170551   4.922830   2.355914  -0.000744   0.142736  -0.005213
 434   5  -1.748744   5.233677   2.390937  -0.000847   0.142736  -0.005933
 435   9  -1.409929   5.751647  -1.659058  -0.000535   0.064877  -0.008239
 436   9  -2.426165   5.535789  -1.915373  -0.000914   0.143387  -0.006372
 437   9  -3.640575   5.259702  -1.557979  -0.001153   0.143387  -0.008044
 438   9  -4.363569   5.080159  -0.789818  -0.000531   0.064877  -0.008180
 439   5  -1.641527   5.378203  -2.037816  -0.000865   0.142741  -0.006060
 440   5  -3.062930   5.067965  -2.091875  -0.000739   0.142741  -0.005174
 441   5  -4.234924   4.788614  -1.274593  -0.001071   0.142741  -0.007506
 442  13   1.050049   5.570596  -1.799234  -0.004576   0.270886  -0.016893
 443   5  -0.254332   5.233474  -2.033158  -0.002015   0.381763  -0.005278
 444  13   0.857494   5.598095   2.172264  -0.004837   0.271183  -0.017836
 445   5  -0.276185   4.938005   2.558165  -0.001857   0.382180  -0.004859
 446   6  -1.559703  -0.946417  -3.388644   0.000220   0.048437   0.004533
 447   7  -2.062989  -0.349773  -3.381379   0.000246   0.048437   0.005085
 448   8  -1.979757  -0.789206  -3.428716   0.000306   0.048437   0.006313
 449   6  -1.722071  -1.165685   3.329127   0.000212   0.048437   0.004368
 450   7  -2.225359  -0.569044   3.336482   0.000246   0.048437   0.005077
 451   8  -2.143816  -1.010758   3.359040   0.000290   0.048437   0.005982
 452   7  -2.217275  -0.346106   3.442683   0.000098   0.012330   0.007975
 453   6  -1.492301  -1.190929   3.430654   0.000061   0.012330   0.004919
 454   7  -2.043106  -0.114496  -3.469989   0.000089   0.012297   0.007211
 455   6  -1.332393  -0.971339  -3.482749   0.000075   0.012297   0.006059
 456   6  -2.834923  -5.937499  -1.015333  -0.000203   0.011306  -0.017988
 457   8  -3.245446  -5.754559  -1.009384  -0.000145   0.011306  -0.012788
 458  10  -2.603948  -6.111038  -0.943605  -0.000214   0.011306  -0.018921
 459   6  -2.873377  -5.989363   0.577400  -0.000182   0.011306  -0.016103
 460   8  -3.283422  -5.805779   0.563575  -0.000160   0.011306  -0.014118
 461  10  -2.638940  -6.158233   0.505759  -0.000145   0.011306  -0.012869
 462   8  -2.080478  -1.442155  -3.617919   0.001080   0.188593   0.005729
 463   8  -2.709476  -3.259773  -3.477775   0.001937   0.384121   0.005042
 464   8  -3.347033  -5.056064  -2.104268  -0.000807   0.384121  -0.002100
 465   6  -1.711946  -2.351678  -3.607590   0.002089   0.384121   0.005438
 466   6  -2.454929  -4.480135  -2.946294   0.000445   0.384121   0.001158
 467   6  -2.892677  -5.695177  -1.514141  -0.000943   0.188593  -0.005000
 468   8  -3.565296  -5.569501   1.079631  -0.000637   0.188575  -0.003376
 469   8  -3.199059  -4.450999   2.607105   0.000771   0.384082   0.002008
 470   8  -2.492250  -2.371461   3.440583   0.002342   0.384082   0.006097
 471   6  -2.828999  -5.390290   1.703172  -0.001280   0.384082  -0.003334
 472   6  -2.261297  -3.688341   3.219691   0.001652   0.384082   0.004302
 473   6  -1.642709  -1.884862   3.508077   0.000791   0.188575   0.004194
 474  10  -2.206613  -6.310661  -1.187514  -0.000710   0.072371  -0.009808
 475  10  -1.341401  -6.144459  -1.972127  -0.001417   0.163533  -0.008668
 476  10   0.044188  -5.908133  -2.183493  -0.001337   0.163533  -0.008173
 477   6  -2.137301  -5.953071  -1.678246  -0.001448   0.155909  -0.009290
 478   6  -0.759718  -5.702251  -2.443880  -0.001097   0.155909  -0.007034
 479   6   0.522230  -5.491587  -2.359791  -0.000479   0.088417  -0.005421
 480  10   0.397518  -5.964170   1.836170  -0.000522   0.072366  -0.007217
 481  10  -0.765883  -6.158195   1.859369  -0.001430   0.163521  -0.008744
 482  10  -1.958109  -6.334839   1.105996  -0.001613   0.163521  -0.009865
 483   6  -0.070852  -5.718701   2.142514  -0.001066   0.155902  -0.006839
 484   6  -1.612763  -5.965584   1.813654  -0.001184   0.155902  -0.007593
 485   6  -2.536311  -6.093143   0.905112  -0.000622   0.088411  -0.007037
 486   7  -7.223902  -0.848340   0.554101  -0.000151   0.010009  -0.015091
 487   8  -7.112434  -1.282721   0.533778  -0.000127   0.010009  -0.012706
 488  11  -7.347648  -0.586319   0.495595  -0.000146   0.010009  -0.014625
 489   7  -7.189551  -0.801939  -0.867544  -0.000161   0.010009  -0.016066
 490   8  -7.078509  -1.236896  -0.870219  -0.000136   0.010009  -0.013540
 491  11  -7.316388  -0.544093  -0.798125  -0.000133   0.010009  -0.013272
 492   8  -6.872016  -1.530107  -1.395195  -0.000616   0.191165  -0.003224
 493   8  -5.627164  -1.283960  -2.882118   0.000676   0.389805   0.001734
 494   8  -3.390304  -0.897829  -3.596122   0.002449   0.389805   0.006284
 495   7  -6.539169  -0.805755  -1.980394  -0.001017   0.389805  -0.002610
 496   7  -4.674794  -0.459751  -3.418040   0.001856   0.389805   0.004761
 497   7  -2.754059  -0.140792  -3.591895   0.000941   0.191165   0.004924
 498   8  -2.822202  -1.008785   3.508337   0.000934   0.191163   0.004887
 499   8  -4.731791  -1.312708   3.221582   0.001900   0.389802   0.004874
 500   8  -6.524065  -1.561344   1.676172  -0.000923   0.389802  -0.002367
 501   7  -3.664522  -0.492190   3.468981   0.002272   0.389802   0.005829
 502   7  -5.863695  -0.827442   2.624232   0.000593   0.389802   0.001522
 503   7  -7.034955  -0.974200   1.066112  -0.000784   0.191163  -0.004102
 504   7  -5.426477   3.969515  -0.476464  -0.000210   0.018819  -0.011153
 505   9  -4.889510   4.466059  -0.385245  -0.000252   0.018819  -0.013387
 506  11  -5.682795   3.829247  -0.434182  -0.000254   0.018819  -0.013491
 507   7  -5.451525   3.935684   0.560289  -0.000216   0.018819  -0.011473
 508   9  -4.911566   4.436270   0.527627  -0.000278   0.018819  -0.014752
 509  11  -5.705284   3.798873   0.496642  -0.000221   0.018819  -0.011732
 510   9  -4.595369   4.917508  -0.489984  -0.000270   0.033601  -0.008049
 511   7  -5.345645   4.117748  -0.589443  -0.000135   0.047446  -0.002843
 512   9  -4.629991   4.883622   0.641607  -0.000330   0.033585  -0.009825
 513   7  -5.370606   4.072343   0.717355  -0.000164   0.047423  -0.003464
 514  11  -6.146504   3.573004  -0.735201  -0.000545   0.066541  -0.008185
 515  11  -6.353738   2.955320  -1.618704  -0.001042   0.147950  -0.007046
 516  11  -6.755720   1.799944  -2.134295  -0.000877   0.147950  -0.005931
 517  11  -7.187897   0.589425  -1.802357  -0.001126   0.147950  -0.007612
 518  11  -7.454369  -0.136441  -1.023147  -0.000486   0.066541  -0.007299
 519   7  -5.836904   3.458506  -1.220379  -0.001005   0.145533  -0.006904
 520   7  -6.197997   2.401893  -2.208992  -0.000750   0.145533  -0.005156
 521   7  -6.692575   0.999141  -2.317881  -0.000751   0.145533  -0.005157
 522   7  -7.117942  -0.174852  -1.502419  -0.001051   0.145533  -0.007222
 523  11  -7.496966  -0.193981   0.739787  -0.000531   0.066541  -0.007985
 524  11  -7.269540   0.479147   1.576594  -0.001021   0.147951  -0.006901
 525  11  -6.855785   1.664785   2.007175  -0.000973   0.147951  -0.006578
 526  11  -6.431214   2.850674   1.587959  -0.001011   0.147951  -0.006833
 527  11  -6.182571   3.524290   0.757606  -0.000530   0.066541  -0.007963
 528   7  -7.183993  -0.264071   1.231211  -0.001084   0.145533  -0.007452
 529   7  -6.800311   0.853620   2.141019  -0.000751   0.145533  -0.005159
 530   7  -6.303262   2.259712   2.147757  -0.000721   0.145533  -0.004953
 531   7  -5.896558   3.377933   1.248664  -0.001123   0.145533  -0.007718
 532  10  -2.547623  -6.320875   0.248487  -0.001152   0.124065  -0.009282
 533   8  -3.550831  -5.864493   0.180888  -0.000889   0.175126  -0.005074
 534  10  -2.543000  -6.309082  -0.567568  -0.001192   0.123987  -0.009614
 535   8  -3.514381  -5.820398  -0.759585  -0.000795   0.175016  -0.004541
 536   8  -7.102710  -1.640628  -0.550973  -0.000164   0.013456  -0.012184
 537  11  -7.241035  -0.922144  -0.486519  -0.000215   0.013456  -0.015952
 538  12  -7.113695  -1.937203  -0.522922  -0.000211   0.013456  -0.015652
 539   8  -7.120574  -1.664753   0.188038  -0.000152   0.013456  -0.011328
 540  11  -7.256759  -0.943379   0.163953  -0.000221   0.013456  -0.016433
 541  12  -7.129724  -1.958851   0.140216  -0.000149   0.013456  -0.011041
 542  11  -7.458078  -0.424716  -0.667541  -0.000431   0.058990  -0.007302
 543   8  -7.176501  -1.485587  -0.713263  -0.000288   0.083307  -0.003455
 544  11  -7.491322  -0.463465   0.305747  -0.000472   0.059002  -0.008001
 545   8  -7.194829  -1.515948   0.411560  -0.000216   0.083324  -0.002591
 546  12  -7.140226  -2.456283  -0.819333  -0.000579   0.067280  -0.008601
 547  12  -6.719037  -2.906879  -1.728967  -0.001083   0.149327  -0.007250
 548  12  -5.933526  -3.816944  -2.296143  -0.000789   0.149327  -0.005282
 549  12  -5.110593  -4.824008  -2.021305  -0.000890   0.149327  -0.005959
 550  12  -4.585476  -5.517823  -1.016413  -0.001164   0.149327  -0.007792
 551   8  -6.882710  -2.221712  -1.295802  -0.001117   0.147462  -0.007577
 552   8  -6.163387  -3.023298  -2.330277  -0.000668   0.147462  -0.004530
 553   8  -5.210036  -4.159610  -2.503550  -0.000602   0.147462  -0.004084
 554   8  -4.411026  -5.167748  -1.745034  -0.000920   0.147462  -0.006236
 555   8  -4.061147  -5.653815  -0.690159  -0.000682   0.082198  -0.008301
 556  12  -4.502280  -5.688611   0.128786  -0.000596   0.067279  -0.008852
 557  12  -4.858313  -5.320274   1.101092  -0.000998   0.149323  -0.006682
 558  12  -5.602701  -4.467703   1.798128  -0.000918   0.149323  -0.006146
 559  12  -6.444430  -3.447039   1.669333  -0.000844   0.149323  -0.005654
 560  12  -7.040623  -2.674051   0.767171  -0.001183   0.149323  -0.007925
 561   8  -4.219427  -5.544652   0.626402  -0.001217   0.147459  -0.008252
 562   8  -4.864423  -4.839467   1.773876  -0.000713   0.147459  -0.004835
 563   8  -5.804537  -3.729174   2.110680  -0.000612   0.147459  -0.004147
 564   8  -6.656813  -2.666052   1.499618  -0.000888   0.147459  -0.006021
 565   8  -7.081497  -2.094483   0.517620  -0.000485   0.082196  -0.005897
 566  11  -5.907978   3.890582   0.121591  -0.001185   0.312429  -0.003792
 567   9  -4.809299   4.853743  -0.006501  -0.001470   0.312429  -0.004705
 568  13   0.609828   6.290676  -1.156340  -0.003625   0.244208  -0.014844
 569  13   0.532054   6.685450  -0.080117  -0.008859   0.488454  -0.018137
 570  13   0.527431   6.402964   1.291548  -0.008139   0.488454  -0.016662
 571   9  -0.866640   6.296126  -0.796421  -0.004251   0.488454  -0.008704
 572   9  -0.928795   6.488622   0.589353  -0.004623   0.488454  -0.009465
 573   9  -0.902528   6.024434   1.640063  -0.001489   0.244208  -0.006095
 574  12  -4.155062  -5.863761  -0.268976  -0.000171   0.072671  -0.002347
 575  10  -2.771657  -6.358366  -0.208436  -0.000195   0.072671  -0.002681
 576  12  -7.302778  -2.091659  -0.134136  -0.000655   0.222790  -0.002942
 577  11  -7.541892  -0.645661  -0.225276  -0.000684   0.222790  -0.003070
 =====================================================

              2836619  WORDS OF DYNAMIC MEMORY USED
 EXECUTION OF GAMESS TERMINATED NORMALLY Mon Nov  1 12:38:07 2021
 DDI: 263640 bytes (0.3 MB / 0 MWords) used by master data server.

 ----------------------------------------
 CPU timing information for all processes
 ========================================
 0: 602.456 + 0.471 = 602.928
 ----------------------------------------
 ddikick.x: exited gracefully