

 Distributed Data Interface kickoff program.
 Initiating 1 compute processes on 1 nodes to run the following command:
 /home/servidor/src/gamess/gamess.00.x CHLOROACETIC_ACID 

          ******************************************************
          *      GAMESS VERSION = 30 JUN 2019 R1 Patch 1       *
          *             FROM IOWA STATE UNIVERSITY             *
          * M.W.SCHMIDT, K.K.BALDRIDGE, J.A.BOATZ, S.T.ELBERT, *
          *   M.S.GORDON, J.H.JENSEN, S.KOSEKI, N.MATSUNAGA,   *
          *          K.A.NGUYEN, S.J.SU, T.L.WINDUS,           *
          *       TOGETHER WITH M.DUPUIS, J.A.MONTGOMERY       *
          *         J.COMPUT.CHEM.  14, 1347-1363(1993)        *
          **************** 64 BIT LINUX VERSION ****************

  EXECUTION OF GAMESS BEGUN Mon Nov  1 12:38:18 2021

            ECHO OF THE FIRST FEW INPUT CARDS -
 INPUT CARD>! SELECT RESTRICTED HARTREE-FOCK AS DEFAULT                                     
 INPUT CARD> $contrl scftyp=rhf $end                                                        
 INPUT CARD>                                                                                
 INPUT CARD>! THEORY: HF OR DFT                                                             
 INPUT CARD> $contrl mplevl=0 $end                                                          
 INPUT CARD>                                                                                
 INPUT CARD> $system timlim=10000 mwords=20 $end                                            
 INPUT CARD> $SCF DIRSCF=.TRUE. $end                                                        
 INPUT CARD>                                                                                
 INPUT CARD>! BASIS SETS                                                                    
 INPUT CARD>! KTZVP                                                                         
 INPUT CARD> $contrl ISPHER=1 $END                                                          
 INPUT CARD> $BASIS GBASIS=KTZVP $END                                                       
 INPUT CARD>                                                                                
 INPUT CARD>! One of the following                                                          
 INPUT CARD> $guess guess=HUCKEL $end                                                       
 INPUT CARD>                                                                                
 INPUT CARD> $statpt projct=.FALSE. $end                                                    
 INPUT CARD> $STATPT IFREEZ(1)=1,2,3 $END                                                   
 INPUT CARD>                                                                                
 INPUT CARD>! Optimize the geometry with COSMO effects                                      
 INPUT CARD> $statpt opttol=0.0005 nstep=50 $end                                            
 INPUT CARD> $contrl runtyp=OPTIMIZE maxit=200 $end                                         
 INPUT CARD>                                                                                
 INPUT CARD>! Run COSMO on perfect conductor                                                
 INPUT CARD> $COSGMS PRFCND=.TRUE. $end                                                     
 INPUT CARD>                                                                                
 INPUT CARD>! Specifying RSOLV                                                              
 INPUT CARD> $COSGMS COSRAD = 1.4 $end                                                      
 INPUT CARD>                                                                                
 INPUT CARD>! available memory                                                              
 INPUT CARD> $SYSTEM MWORDS=500 $END                                                        
 INPUT CARD>                                                                                
 INPUT CARD>! Internal Coordinates                                                          
 INPUT CARD> $CONTRL nzvar=1 $END                                                           
 INPUT CARD> $zmat dlc=.t. auto=.t. $END                                                    
 INPUT CARD> $SYSTEM MWORDS=500 $END                                                        
 INPUT CARD>                                                                                
 INPUT CARD> $DATA                                                                          
 INPUT CARD>                                                                                
 INPUT CARD>C1                                                                              
 INPUT CARD>Cl    17.0      1.2183000000    1.2857000000    0.2173000000                    
 INPUT CARD>O      8.0     -2.3826000000   -0.4784000000   -0.0418000000                    
 INPUT CARD>O      8.0     -0.2851000000   -1.1681000000    0.1669000000                    
 INPUT CARD>C      6.0     -0.5589000000    1.1886000000    0.0634000000                    
 INPUT CARD>C      6.0     -1.0607000000   -0.2302000000    0.0667000000                    
 INPUT CARD>H      1.0     -0.8579000000    1.6790000000   -0.8864000000                    
 INPUT CARD>H      1.0     -1.0169000000    1.7395000000    0.9112000000                    
 INPUT CARD>H      1.0     -3.0268000000    0.2389000000   -0.1229000000                    
 INPUT CARD> $END                                                                           
  500000000 WORDS OF MEMORY AVAILABLE

     ---------
                                                                                 

 THE POINT GROUP OF THE MOLECULE IS C1      
 THE ORDER OF THE PRINCIPAL AXIS IS     0

 ATOM      ATOMIC                      COORDINATES (BOHR)
           CHARGE         X                   Y                   Z
 CL         17.0     2.3022531708        2.4296207024        0.4106374571
 O           8.0    -4.5024611383       -0.9040449125       -0.0789905463
 O           8.0    -0.5387608791       -2.2073889263        0.3153952674
 C           6.0    -1.0561678545        2.2461283090        0.1198086276
 C           6.0    -2.0044323552       -0.4350149224        0.1260447234
 H           1.0    -1.6211959249        3.1728499334       -1.6750531155
 H           1.0    -1.9216623569        3.2871783556        1.7219183200
 H           1.0    -5.7198226196        0.4514555385       -0.2322473239

          INTERNUCLEAR DISTANCES (ANGS.)
          ------------------------------

                1 CL         2 O          3 O          4 C          5 C     

   1 CL      0.0000000    4.0181666    2.8781741 *  1.7864919 *  2.7412541 *
   2 O       4.0181666    0.0000000    2.2178251 *  2.4730220 *  1.3493684 *
   3 O       2.8781741 *  2.2178251 *  0.0000000    2.3748081 *  1.2211682 *
   4 C       1.7864919 *  2.4730220 *  2.3748081 *  0.0000000    1.5049278 *
   5 C       2.7412541 *  1.3493684 *  1.2211682 *  1.5049278 *  0.0000000  
   6 H       2.3839977 *  2.7735238 *  3.0892587    1.1099609 *  2.1434953 *
   7 H       2.3840199 *  2.7735223 *  3.0892801    1.1099638 *  2.1435524 *
   8 H       4.3854761    0.9675175 *  3.0952467    2.6508806 *  2.0301606 *

                6 H          7 H          8 H     

   1 CL      2.3839977 *  2.3840199 *  4.3854761  
   2 O       2.7735238 *  2.7735223 *  0.9675175 *
   3 O       3.0892587    3.0892801    3.0952467  
   4 C       1.1099609 *  1.1099638 *  2.6508806 *
   5 C       2.1434953 *  2.1435524 *  2.0301606 *
   6 H       0.0000000    1.8056320 *  2.7131066 *
   7 H       1.8056320 *  0.0000000    2.7130907 *
   8 H       2.7131066 *  2.7130907 *  0.0000000  

  * ... LESS THAN  3.000


     
     ---------------------------
     ATOM         COORDINATES           RADIUS 
     1    2.3023    2.4296    0.4106    2.0500
     2   -4.5025   -0.9040   -0.0790    1.7200
     3   -0.5388   -2.2074    0.3154    1.7200
     4   -1.0562    2.2461    0.1198    2.0000
     5   -2.0044   -0.4350    0.1260    2.0000
     6   -1.6212    3.1728   -1.6751    1.3000
     7   -1.9217    3.2872    1.7219    1.3000
     8   -5.7198    0.4515   -0.2322    1.3000

          ----------------
          
       ***** EQUILIBRIUM GEOMETRY LOCATED *****
            (SUBJECT TO   3 CONSTRAINT(S))
 COORDINATES OF ALL ATOMS ARE (ANGS)
   ATOM   CHARGE       X              Y              Z
 ------------------------------------------------------------
 CL         17.0   1.2176100264   1.2817356162   0.2173554457
 O           8.0  -2.3588833830  -0.4839776534  -0.0395504517
 O           8.0  -0.3063787208  -1.1443002282   0.1642161009
 C           6.0  -0.5700426000   1.1896629782   0.0624106405
 C           6.0  -1.0587250273  -0.2382855374   0.0672205842
 H           1.0  -0.8277343463   1.6545577528  -0.8712970218
 H           1.0  -0.9847333482   1.7142083723   0.9033960880
 H           1.0  -2.9947258547   0.2206057038  -0.1196477952


                     --------------------
                     INTERNAL COORDINATES
                     --------------------

                 - - ATOMS - -         COORDINATE      COORDINATE
 NO.   TYPE    I  J  K  L  M  N        (BOHR,RAD)       (ANG,DEG)
 ----------------------------------------------------------------
   1 STRETCH   1  4                     3.3953003       1.7967157
   2 STRETCH   2  8                     1.7998576       0.9524437
   3 STRETCH   2  5                     2.5085544       1.3274699
   4 STRETCH   3  5                     2.2329939       1.1816496
   5 STRETCH   4  7                     2.0303545       1.0744174
   6 STRETCH   4  6                     2.0303276       1.0744032
   7 STRETCH   4  5                     2.8520909       1.5092616
   8 BEND      1  4  5                  1.9501983     111.7381338
   9 BEND      1  4  7                  1.8665921     106.9478486
  10 BEND      1  4  6                  1.8664943     106.9422467
  11 BEND      2  5  4                  2.0851618     119.4709698
  12 BEND      2  5  3                  2.0809191     119.2278817
  13 BEND      3  5  4                  2.1171044     121.3011484
  14 BEND      5  4  6                  1.9118691     109.5420293
  15 BEND      5  4  7                  1.9118115     109.5387296
  16 BEND      5  2  8                  2.1219869     121.5808952
  17 BEND      6  4  7                  1.9567165     112.1115964
  18 TORSION   1  4  5  3               0.0000192       0.0011024
  19 TORSION   1  4  5  2              -3.1415158    -179.9955938
  20 TORSION   2  5  4  6              -1.0764186     -61.6742427
  21 TORSION   2  5  4  7               1.0764881      61.6782267
  22 TORSION   3  5  2  8              -3.1413773    -179.9876586
  23 TORSION   3  5  4  6               2.0651164     118.3224536
  24 TORSION   3  5  4  7              -2.0651622    -118.3250770
  25 TORSION   4  5  2  8               0.0001589       0.0091067

          COSab RESULTS
 =====================================================

   Dielectric Constant                  = INFTY
   Basic Grid Size                      =                 1082
   Number of Segments                   =                   92
   Number of Segments located on spheres=                  202
   Number of Segments of the cavity     =                  364
   Solvent Radius (rsolv)               = 1.40
   Outlying Charge Error Method         = double cavity

 =====================================================

  Total solvated Energy (a.u.)          =  -686.8215835960
  Total Energy corrected (a.u.)         =  -686.8220646342

  Outlying charge effect (a.u.)         =    -0.0004810382
  Outlying charge effect (kcal/mol)     =    -0.3018562687

  Dielectric Energy (a.u.)              =    -0.0350769213
  Dielectric energy corr. (a.u.)        =    -0.0355579595

  Sum of polarization charges           =     0.0163057707
  Sum of polarization charges(cor.)     =    -0.0163057707

  Total surface area of cavity (A**2)   =  111.15
  Total volume of cavity (A**3)         =   96.30

 =====================================================
 NPS=                   364
NR.  ATOM  (X, Y, Z)(a.u.)                  CHARGE(e)  AREA(A**2) SIGMA(e/A**2)
   1   1   6.146244   2.584754   0.851985  -0.002505   0.536887  -0.004666
   2   1   4.373604  -0.746641   1.229549   0.002616   0.390463   0.006700
   3   1   3.752186   2.119065   3.989767   0.003215   0.488079   0.006586
   4   1   3.813252   5.587220   2.054668   0.002937   0.488079   0.006017
   5   1   4.250902   4.863676  -1.879229   0.002970   0.488079   0.006085
   6   1   4.323162   0.756147  -2.442791   0.002983   0.439271   0.006791
   7   1   5.927503   1.166628   0.939208  -0.001312   0.585695  -0.002240
   8   1   5.220661   0.027263   1.275234   0.001238   0.488079   0.002537
   9   1   5.743045   2.312432   2.184820  -0.001347   0.585695  -0.002301
  10   1   4.907206   2.087251   3.257260   0.001158   0.488079   0.002372
  11   1   5.757891   3.860865   1.404220  -0.001660   0.585695  -0.002834
  12   1   4.955115   4.992922   1.574272   0.000892   0.536887   0.001661
  13   1   5.958295   3.567880  -0.153629  -0.001721   0.536887  -0.003206
  14   1   5.340283   4.241865  -1.157204   0.000604   0.488079   0.001238
  15   1   6.042503   2.047269  -0.520773  -0.001861   0.683311  -0.002723
  16   1   5.420480   1.342223  -1.616526   0.001361   0.585695   0.002324
  17   1   4.321887  -0.079622   2.570479   0.002463   0.390463   0.006309
  18   1   4.127963   0.860012   3.448701   0.003310   0.536887   0.006165
  19   1   3.986458   3.361293   3.769965   0.003790   0.634503   0.005973
  20   1   4.009503   4.717899   3.021801   0.003270   0.585695   0.005583
  21   1   4.077265   5.858489   0.619330   0.003331   0.585695   0.005687
  22   1   4.285564   5.539711  -0.750893   0.003163   0.585695   0.005400
  23   1   4.491356   3.742527  -2.498919   0.003137   0.536887   0.005844
  24   1   4.571526   2.161380  -2.717193   0.003572   0.585695   0.006099
  25   1   4.769451   0.128946  -1.501141   0.002491   0.439271   0.005672
  26   1   4.640757  -0.629409  -0.059241   0.003145   0.536887   0.005858
  27   1   3.822893  -0.639376   2.232360   0.001599   0.244040   0.006550
  28   1   1.835628   0.766539   3.882031   0.002646   0.439271   0.006025
  29   1   2.847118   1.313416   4.082228   0.003054   0.390463   0.007821
  30   1   2.469419   2.665194   4.273366   0.004441   0.585695   0.007582
  31   1   1.498167   3.540009   4.031957   0.002588   0.488079   0.005302
  32   1   1.577179   4.941326   3.263304   0.002865   0.488079   0.005869
  33   1   2.558543   5.522807   2.718721   0.004505   0.585695   0.007691
  34   1   2.710302   6.178214   1.266079   0.004983   0.634503   0.007854
  35   1   1.591143   6.229518   0.325235   0.003620   0.585695   0.006181
  36   1   1.678073   5.828954  -1.325043   0.002507   0.488079   0.005137
  37   1   3.004688   5.607259  -1.679021   0.004153   0.536887   0.007735
  38   1   3.266863   4.342117  -2.812316   0.003644   0.488079   0.007465
  39   1   2.229534   3.831489  -3.197034   0.002499   0.439271   0.005690
  40   1   2.189744   2.204917  -3.455512   0.002748   0.536887   0.005119
  41   1   3.443337   1.403265  -3.147959   0.003792   0.488079   0.007769
  42   1   3.405695  -0.005788  -2.398572   0.003614   0.439271   0.008227
  43   1   5.274882   0.902969   2.374233   0.000823   0.585695   0.001405
  44   1   5.139786   3.705158   2.713397   0.000444   0.683311   0.000649
  45   1   5.283207   4.878253   0.126132   0.000257   0.585695   0.000438
  46   1   5.466370   2.963305  -1.755985   0.000904   0.634503   0.001425
  47   1   5.531978   0.409280  -0.307843   0.000786   0.585695   0.001342
  48   1   3.048526   0.051737   3.382232   0.004092   0.488079   0.008385
  49   1   2.757436   4.254654   3.793166   0.004569   0.585695   0.007801
  50   1   2.865674   6.164973  -0.413624   0.004565   0.585695   0.007794
  51   1   3.419139   2.924829  -3.264093   0.004632   0.585695   0.007909
  52   1   4.004263  -0.644212  -1.233570   0.002850   0.341655   0.008342
  53   1   1.352981   1.983504   4.141196   0.001854   0.439271   0.004221
  54   1   1.404929   5.884562   1.899373   0.002466   0.488079   0.005052
  55   1   2.133676   5.006261  -2.470525   0.002795   0.439271   0.006362
  56   1   2.334779   0.810019  -3.111677   0.002855   0.488079   0.005850
  57   2  -4.784240  -3.273826  -2.286530   0.003674   0.274871   0.013365
  58   2  -5.564929  -3.755756   1.050578   0.004449   0.309230   0.014388
  59   2  -7.382411  -1.862011  -1.129620  -0.000009   0.274871  -0.000032
  60   2  -6.752959  -0.765467   2.221757   0.000802   0.343589   0.002333
  61   2  -5.339188  -0.250461  -3.131939   0.000613   0.206154   0.002975
  62   2  -4.193536  -3.666996  -1.783302   0.002766   0.206154   0.013418
  63   2  -4.646388  -4.059003   0.726324   0.003400   0.240512   0.014135
  64   2  -5.120016  -3.849924  -1.303458   0.005474   0.377948   0.014483
  65   2  -5.513671  -3.988585  -0.070346   0.005052   0.343589   0.014703
  66   2  -5.005563  -3.475356   1.850593   0.006033   0.446666   0.013507
  67   2  -4.698725  -2.766799   2.585303   0.002815   0.240512   0.011704
  68   2  -4.244882  -2.742526  -2.753930   0.002070   0.206154   0.010042
  69   2  -7.614860  -1.685593  -0.028178  -0.001108   0.274871  -0.004032
  70   2  -7.394551  -1.344272   1.249860  -0.000300   0.309230  -0.000971
  71   2  -6.092127  -0.166651   2.633332   0.000432   0.240512   0.001797
  72   2  -5.398059   0.490260   2.701339  -0.000679   0.206154  -0.003293
  73   2  -4.902128   0.314121  -3.050870  -0.000711   0.137436  -0.005171
  74   2  -6.183279  -0.737157  -2.823440   0.000254   0.309230   0.000821
  75   2  -6.927233  -1.377147  -2.136733  -0.000039   0.309230  -0.000128
  76   2  -5.832980  -3.133166  -2.011500   0.005039   0.377948   0.013333
  77   2  -6.754062  -2.495854  -1.745285   0.002969   0.377948   0.007855
  78   2  -7.144599  -2.713477  -0.404778   0.003466   0.481025   0.007206
  79   2  -6.470163  -3.438716   0.303679   0.004811   0.377948   0.012729
  80   2  -6.354883  -3.029265   1.504269   0.005301   0.412307   0.012857
  81   2  -6.665296  -1.972840   2.063249   0.004062   0.446666   0.009094
  82   2  -5.883957  -1.206592   2.831284   0.003092   0.343589   0.009000
  83   2  -5.037030  -1.542967   3.061192   0.002932   0.274871   0.010666
  84   2  -4.607563  -0.577213  -3.304037   0.001053   0.206154   0.005107
  85   2  -5.406234  -1.242749  -3.166204   0.002202   0.274871   0.008013
  86   2  -5.197589  -2.383966  -2.877967   0.003813   0.309230   0.012329
  87   2  -4.587946  -4.134321  -0.500212   0.002930   0.240512   0.012183
  88   2  -6.229529  -3.508954  -0.908021   0.004955   0.377948   0.013111
  89   2  -5.630763  -2.430043   2.550487   0.004935   0.377948   0.013058
  90   2  -4.455534  -1.725275  -3.222351   0.003192   0.309230   0.010323
  91   2  -7.210863  -2.360320   0.870922   0.002542   0.412307   0.006165
  92   2  -5.226062  -0.371669   3.036429   0.001101   0.206154   0.005339
  93   2  -6.139969  -2.017509  -2.627780   0.003513   0.377948   0.009296
  94   3   1.562842  -4.593889   0.565701   0.004766   0.377948   0.012611
  95   3   1.381946  -2.617830   2.862193   0.002704   0.206154   0.013119
  96   3   0.569541  -3.481152  -2.429470   0.004259   0.343589   0.012394
  97   3  -1.572243  -5.168603  -0.425157   0.005480   0.309230   0.017722
  98   3  -1.085307  -4.152108   2.830133   0.004246   0.309230   0.013729
  99   3   1.807034  -3.974032   1.571142   0.005451   0.412307   0.013222
 100   3   1.891144  -3.069053   2.218509   0.004798   0.309230   0.015517
 101   3   2.225757  -3.802190   0.214097   0.004083   0.309230   0.013205
 102   3   2.471205  -3.127046  -0.264582   0.004364   0.240512   0.018143
 103   3   1.463749  -4.505917  -0.638320   0.005253   0.412307   0.012742
 104   3   0.943554  -4.252629  -1.658826   0.004828   0.377948   0.012775
 105   3   0.614825  -5.181286   0.149301   0.005156   0.377948   0.013641
 106   3  -0.478896  -5.385852  -0.094790   0.005444   0.343589   0.015846
 107   3   0.735141  -4.915935   1.430994   0.006313   0.481025   0.013125
 108   3  -0.133111  -4.728564   2.254744   0.005712   0.412307   0.013855
 109   3   2.187404  -2.837422  -1.256880   0.002047   0.171795   0.011916
 110   3   1.522280  -3.026482  -2.014054   0.004647   0.343589   0.013524
 111   3  -0.286289  -4.323716  -2.099605   0.005619   0.412307   0.013627
 112   3  -0.953219  -4.921913  -1.365916   0.005958   0.377948   0.015764
 113   3  -1.559107  -5.240493   0.670139   0.005391   0.309230   0.017434
 114   3  -1.433419  -4.863706   1.903323   0.006665   0.412307   0.016164
 115   3  -0.180353  -3.705166   3.143290   0.005791   0.446666   0.012964
 116   3   0.777010  -3.060987   3.124313   0.003573   0.274871   0.013000
 117   3   0.654747  -1.882868  -2.683734   0.001126   0.103077   0.010927
 118   3   0.360061  -2.555297  -2.776498   0.002134   0.240512   0.008874
 119   3  -0.560477  -3.337984  -2.719911   0.004190   0.377948   0.011087
 120   3  -1.987062  -4.698218  -1.156531   0.004476   0.274871   0.016283
 121   3  -2.330640  -4.899344   0.235637   0.004302   0.240512   0.017889
 122   3  -2.070770  -4.024410   2.517633   0.004798   0.343589   0.013964
 123   3  -1.347897  -3.240062   3.278845   0.002385   0.274871   0.008678
 124   3   0.528893  -2.015371   3.362480   0.003365   0.240512   0.013990
 125   3   2.397125  -3.186021   1.122543   0.004147   0.274871   0.015088
 126   3   1.936450  -3.654615  -1.107635   0.004701   0.343589   0.013682
 127   3   0.191285  -5.023641  -1.025620   0.005817   0.412307   0.014109
 128   3  -0.538332  -5.317340   1.091018   0.007060   0.446666   0.015806
 129   3   0.963062  -3.982725   2.517871   0.005263   0.412307   0.012765
 130   3   1.201041  -2.342038  -2.403324   0.002480   0.171795   0.014438
 131   3  -1.520248  -4.090615  -2.131131   0.004471   0.343589   0.013014
 132   3  -2.344387  -4.669164   1.389316   0.004530   0.274871   0.016481
 133   3  -0.282896  -2.511544   3.528260   0.004194   0.377948   0.011096
 134   4  -1.766509   5.959676   0.301387  -0.001005   0.278737  -0.003604
 135   4  -0.838474   1.517724   3.818455  -0.001327   0.185824  -0.007143
 136   4  -2.160619   5.782166  -0.670201  -0.001415   0.371649  -0.003807
 137   4  -4.080325   4.236398  -1.027706  -0.001151   0.139368  -0.008256
 138   4  -0.095022   1.697532  -3.489869  -0.001144   0.139368  -0.008208
 139   4  -4.122303   4.465786  -0.188404  -0.000407   0.278737  -0.001462
 140   4  -3.378216   5.246428   0.117179  -0.001267   0.325193  -0.003896
 141   4  -0.839525   6.016436  -0.048443  -0.001271   0.371649  -0.003421
 142   4  -4.358759   3.942899   0.920217  -0.000757   0.046456  -0.016301
 143   4  -2.654661   5.672181   0.386111  -0.000812   0.278737  -0.002913
 144   4  -0.999983   5.890827   1.122491  -0.001744   0.278737  -0.006255
 145   4  -0.527332   2.104548   3.854424  -0.000457   0.046456  -0.009841
 146   4  -0.806448   5.817824  -1.093774  -0.001372   0.278737  -0.004923
 147   4  -3.423265   5.082986  -0.744626  -0.001191   0.232280  -0.005128
 148   4  -0.555993   1.378844  -3.523052  -0.000420   0.046456  -0.009030
 149   4  -4.101401   4.475885   0.537255  -0.000914   0.139368  -0.006555
 150   5  -3.589426   0.515369   3.417581  -0.002090   0.232280  -0.008996
 151   5  -3.077848  -2.810522   2.875356  -0.000096   0.092912  -0.001030
 152   5  -1.061632  -1.555855  -3.362972  -0.000845   0.185824  -0.004546
 153   5  -2.902759   0.036189  -3.510811  -0.002869   0.325193  -0.008824
 154   5  -1.114089  -0.722022   3.790954  -0.001726   0.278737  -0.006191
 155   5  -2.553074  -2.088685   3.487802  -0.000766   0.232280  -0.003299
 156   5  -2.624059  -2.935129  -2.651680   0.000022   0.092912   0.000232
 157   5  -1.741713  -2.262077  -3.179719  -0.000284   0.139368  -0.002038
 158   5  -1.534643  -0.085211   3.859827  -0.002031   0.232280  -0.008744
 159   5  -2.467189   0.066296   3.841837  -0.003428   0.278737  -0.012298
 160   5  -3.259095  -0.507842   3.690370  -0.003443   0.371649  -0.009263
 161   5  -3.262046  -1.772662   3.435291  -0.001250   0.278737  -0.004483
 162   5  -2.693792  -1.019355  -3.544487  -0.002558   0.325193  -0.007867
 163   5  -1.791226  -1.453735  -3.510752  -0.002322   0.325193  -0.007141
 164   5  -0.610378  -0.591664  -3.384560  -0.003693   0.418105  -0.008832
 165   5  -1.790498  -0.239269  -3.640667  -0.003781   0.325193  -0.011627
 166   5  -2.121807  -1.214139   3.826506  -0.002769   0.418105  -0.006623
 167   5  -2.571168  -2.225909  -3.160215  -0.001164   0.278737  -0.004176
 168   6  -1.969304   4.066853  -3.879685  -0.005903   0.471065  -0.012532
 169   6  -2.550221   2.753017  -3.865354  -0.004975   0.392554  -0.012674
 170   6  -0.708199   3.064354  -3.948371  -0.004143   0.372926  -0.011110
 171   6  -0.842241   5.087327  -2.938691  -0.004177   0.353299  -0.011824
 172   6  -2.571196   5.282484  -2.257633  -0.003130   0.353299  -0.008861
 173   6  -3.521923   4.376090  -2.447323  -0.004031   0.353299  -0.011410
 174   6  -1.560621   2.570925  -4.039479  -0.004488   0.392554  -0.011434
 175   6  -0.841223   4.222392  -3.723012  -0.004770   0.412182  -0.011573
 176   6  -1.727747   5.291009  -2.797155  -0.004529   0.412182  -0.010989
 177   6  -2.820222   4.560805  -3.195941  -0.004422   0.372926  -0.011858
 178   6  -3.244055   3.466306  -3.406569  -0.005244   0.412182  -0.012723
 179   7  -2.942305   4.621638   3.426165  -0.005584   0.451437  -0.012369
 180   7  -1.306732   3.596524   4.073699  -0.004495   0.372926  -0.012053
 181   7  -2.073061   2.646501   4.081737  -0.003168   0.314043  -0.010087
 182   7  -3.783539   3.529275   3.208638  -0.004661   0.353299  -0.013192
 183   7  -3.550548   5.008522   1.931256  -0.003163   0.333671  -0.009480
 184   7  -1.676661   5.544270   2.537001  -0.004225   0.412182  -0.010250
 185   7  -2.343260   3.879461   4.029385  -0.004757   0.392554  -0.012117
 186   7  -3.100695   3.005687   3.815089  -0.004735   0.372926  -0.012696
 187   7  -3.921326   4.302954   2.518607  -0.004382   0.372926  -0.011752
 188   7  -2.736101   5.417859   2.430548  -0.004881   0.451437  -0.010811
 189   7  -1.489952   4.858140   3.517449  -0.005568   0.471065  -0.011821
 190   8  -7.458474   2.057504  -0.551891  -0.008995   0.392554  -0.022915
 191   8  -7.664383   0.501070   1.190713  -0.008433   0.451437  -0.018681
 192   8  -7.875161   0.058639  -1.224275  -0.008589   0.431809  -0.019891
 193   8  -6.303800   1.399019  -2.383642  -0.010114   0.471065  -0.021470
 194   8  -6.500157   2.158657   1.288552  -0.008319   0.333671  -0.024933
 195   8  -8.030971   1.055206  -0.176674  -0.010414   0.451437  -0.023068
 196   8  -7.520724   1.331935  -1.542368  -0.010451   0.471065  -0.022185
 197   8  -6.521153   2.381495  -1.422950  -0.012219   0.490692  -0.024902
 198   8  -6.670844   2.638415   0.050508  -0.010778   0.431809  -0.024961
 199   8  -7.464274   1.737481   0.790225  -0.010012   0.451437  -0.022178
 200   8  -8.052648  -0.062073   0.051769  -0.007957   0.412182  -0.019305
 201   8  -7.123500   0.462396  -2.198125  -0.006513   0.372926  -0.017464
 202   8  -6.733514   1.241279   1.823631  -0.006938   0.392554  -0.017673
 203   1   0.833046  -0.061851   3.340643   0.000156   0.102218   0.001522
 204   3   0.312841  -0.891872   3.282994   0.000474   0.102218   0.004641
 205   5   0.091300  -0.573913   3.350996  -0.000173   0.102218  -0.001690
 206   1   1.354646  -0.260308  -2.558832   0.000141   0.102218   0.001375
 207   3   0.827506  -1.087691  -2.538029   0.000491   0.102218   0.004801
 208   5   0.623190  -0.776286  -2.664855  -0.000229   0.102218  -0.002237
 209   3   1.291482  -1.469534  -2.433260   0.003133   0.321222   0.009754
 210   3   2.293725  -2.123582  -1.316572   0.010722   0.646260   0.016590
 211   3   2.698996  -2.420334   0.608826   0.011959   0.646260   0.018505
 212   3   1.964307  -1.998246   2.409252   0.010817   0.646260   0.016737
 213   3   0.785739  -1.277110   3.286863   0.003139   0.321222   0.009773
 214   1   2.527042  -0.600625  -2.143511   0.005743   0.725558   0.007915
 215   1   3.516243  -1.259933  -0.412567   0.008034   0.725558   0.011073
 216   1   3.331410  -1.189609   1.677952   0.008039   0.725558   0.011080
 217   1   2.058057  -0.422187   3.160858   0.005657   0.725558   0.007797
 218   1   0.922135   0.782000  -2.987173  -0.000697   0.074295  -0.009377
 219   4   0.345949   0.742698  -3.072066  -0.001116   0.074295  -0.015026
 220   5   0.172776   0.282586  -3.030686  -0.001146   0.074295  -0.015429
 221   1   0.338405   1.003990   3.616074  -0.000650   0.074295  -0.008751
 222   4  -0.243963   0.967038   3.601114  -0.001014   0.074295  -0.013654
 223   5  -0.409913   0.504180   3.560784  -0.001236   0.074295  -0.016632
 224   1   0.580940   5.299365  -1.786204  -0.000341   0.034496  -0.009876
 225   4   0.002321   5.301552  -1.854667  -0.000560   0.034496  -0.016235
 226   6  -0.178490   5.229065  -2.079329  -0.000488   0.034496  -0.014135
 227   1   0.866485   2.354808  -3.331094  -0.000360   0.034496  -0.010422
 228   4   0.291245   2.322155  -3.417836  -0.000475   0.034496  -0.013770
 229   6   0.084343   2.518724  -3.501335  -0.000500   0.034496  -0.014488
 230   1   0.232572   2.596315   3.839293  -0.000390   0.034487  -0.011313
 231   4  -0.349149   2.566133   3.825877  -0.000565   0.034487  -0.016369
 232   7  -0.566367   2.766557   3.858517  -0.000529   0.034487  -0.015351
 233   1   0.239514   5.428987   2.075906  -0.000306   0.034487  -0.008886
 234   4  -0.342126   5.432326   2.041623  -0.000469   0.034487  -0.013606
 235   7  -0.559978   5.373913   2.235393  -0.000468   0.034487  -0.013581
 236   4  -0.198018   5.687597   1.483917  -0.001549   0.255500  -0.006063
 237   4  -0.024580   5.712964  -0.532322  -0.003375   0.519656  -0.006494
 238   1   0.693826   5.819420   0.785703  -0.001108   0.522408  -0.002120
 239   1   0.877198   5.659285  -1.234909  -0.000285   0.258829  -0.001101
 240   4   0.424463   1.710065  -3.334752  -0.002061   0.256433  -0.008037
 241   1   1.265026   1.489457  -3.231845  -0.000605   0.259773  -0.002327
 242   4  -0.190485   1.687870   3.773798  -0.002000   0.256527  -0.007795
 243   1   0.620868   1.989015   3.903698  -0.000586   0.259869  -0.002257
 244   5   0.316733  -0.237476  -3.037138  -0.001355   0.257128  -0.005269
 245   1   1.477592   0.330523  -2.930096   0.000094   0.261366   0.000358
 246   5  -0.175725  -0.154785   3.592571  -0.001205   0.257076  -0.004689
 247   1   0.796286   0.693840   3.721766  -0.000072   0.261313  -0.000276
 248   6  -0.197590   5.071252  -2.471148  -0.002087   0.181264  -0.011515
 249   6   0.028086   4.109059  -3.224662  -0.005057   0.367462  -0.013762
 250   6   0.010662   2.923751  -3.597855  -0.002099   0.181264  -0.011578
 251   1   1.071293   4.812120  -2.473050  -0.000956   0.513056  -0.001863
 252   1   1.221696   3.261160  -3.286776  -0.001020   0.513056  -0.001988
 253   7  -0.653485   3.176579   3.913389  -0.002138   0.181225  -0.011797
 254   7  -0.564005   4.334162   3.470919  -0.005015   0.367379  -0.013652
 255   7  -0.648423   5.242471   2.627336  -0.002094   0.181225  -0.011552
 256   1   0.595321   3.499559   3.797585  -0.001187   0.512951  -0.002314
 257   1   0.598977   4.991583   2.868774  -0.001002   0.512951  -0.001954
 258   2  -3.296262  -3.387512  -2.026849   0.000217   0.031186   0.006961
 259   3  -2.560331  -3.627269  -1.956434   0.000407   0.031186   0.013066
 260   5  -2.858351  -3.406371  -2.076461   0.000196   0.031186   0.006300
 261   2  -3.671200  -3.245152   2.211048   0.000339   0.031186   0.010861
 262   3  -2.935750  -3.484727   2.286911   0.000291   0.031186   0.009342
 263   5  -3.248895  -3.258086   2.337833   0.000192   0.031186   0.006150
 264   3  -2.880730  -3.892194   2.033590   0.002238   0.246775   0.009069
 265   3  -2.917934  -4.436659   0.643992   0.006508   0.494629   0.013158
 266   3  -2.670609  -4.222013  -1.151644   0.005954   0.494629   0.012037
 267   2  -3.957553  -3.794297   1.412341   0.004228   0.494629   0.008549
 268   2  -3.887397  -4.129487  -0.380500   0.005199   0.494629   0.010511
 269   2  -3.603862  -3.678550  -1.775159   0.001777   0.246775   0.007200
 270   2  -3.937626   0.794430  -2.974171  -0.001354   0.073789  -0.018344
 271   5  -3.526856   0.924697  -3.072642  -0.001765   0.073789  -0.023923
 272   6  -3.279675   1.619618  -3.130724  -0.001890   0.073789  -0.025617
 273   2  -4.444141   0.986969   2.750450  -0.001260   0.073786  -0.017075
 274   5  -4.056248   1.125932   2.910532  -0.001689   0.073786  -0.022895
 275   7  -3.818982   1.824605   2.964607  -0.001944   0.073786  -0.026346
 276   5  -4.153942   0.411911   3.122300  -0.001623   0.165895  -0.009783
 277   5  -3.845826  -1.264015   3.227001  -0.001245   0.325015  -0.003831
 278   5  -3.501933  -2.836364   2.657721   0.000264   0.165895   0.001592
 279   2  -4.632993  -0.357970   3.034426  -0.000376   0.325159  -0.001157
 280   2  -4.240718  -2.312266   2.754916   0.001879   0.325159   0.005779
 281   5  -3.048875  -3.008409  -2.463112   0.000228   0.165883   0.001376
 282   5  -3.278310  -1.479625  -3.187296  -0.001171   0.324993  -0.003603
 283   5  -3.590107   0.197602  -3.250178  -0.001603   0.165883  -0.009665
 284   2  -3.756056  -2.496349  -2.723039   0.001960   0.325135   0.006027
 285   2  -4.081684  -0.567480  -3.196571  -0.000380   0.325135  -0.001168
 286   2  -4.677759   1.219255  -2.626147  -0.001828   0.103338  -0.017694
 287   6  -3.959016   1.999900  -2.726241  -0.002785   0.103338  -0.026952
 288   8  -4.912768   1.412909  -2.500622  -0.002146   0.103338  -0.020767
 289   6  -3.398883   2.126250  -3.276346  -0.002031   0.186435  -0.010891
 290   2  -4.443997   1.025459  -2.975852  -0.001351   0.233210  -0.005795
 291   2  -5.109597   1.383716   2.249923  -0.001908   0.103335  -0.018462
 292   7  -4.414902   2.173449   2.422301  -0.002727   0.103335  -0.026390
 293   8  -5.317764   1.567143   2.072415  -0.002140   0.103335  -0.020714
 294   7  -4.030767   2.413296   2.984745  -0.002160   0.186673  -0.011568
 295   2  -4.874000   1.144919   2.711863  -0.001258   0.233507  -0.005387
 296   8  -5.611854   0.991537  -2.610886  -0.001523   0.085091  -0.017895
 297   8  -6.538485   0.175977  -2.429034  -0.003528   0.184735  -0.019098
 298   8  -7.455845  -0.542360  -1.465484  -0.003862   0.184735  -0.020905
 299   8  -7.772871  -0.660958   0.008088  -0.003952   0.184735  -0.021393
 300   8  -7.353626  -0.128963   1.359828  -0.003430   0.184735  -0.018565
 301   8  -6.377878   0.825510   2.010122  -0.003627   0.184735  -0.019634
 302   2  -5.683934   0.344372  -2.728803  -0.002665   0.182270  -0.014619
 303   2  -6.852736  -0.645077  -2.154095  -0.002672   0.182270  -0.014658
 304   2  -7.559380  -1.124194  -0.758926  -0.003235   0.182270  -0.017746
 305   2  -7.500863  -0.887538   0.858469  -0.003019   0.182270  -0.016565
 306   2  -6.702277  -0.036586   2.004565  -0.002617   0.182270  -0.014358
 307   2  -5.758656   0.851080   2.322190  -0.001425   0.097427  -0.014622
 308   5  -0.072230  -1.391947  -2.955510  -0.000033   0.183683  -0.000179
 309   5  -1.682841  -2.700431  -2.685251   0.000364   0.358549   0.001014
 310   3  -0.356226  -2.315816  -2.754265   0.002265   0.379620   0.005967
 311   3  -1.897871  -3.545781  -2.285499   0.001371   0.172144   0.007963
 312   5  -2.749166  -3.000693   2.780875   0.000527   0.183706   0.002867
 313   5  -1.256443  -1.690525   3.440738   0.000058   0.358595   0.000160
 314   3  -1.801303  -2.895821   3.036609   0.002844   0.379678   0.007489
 315   3  -0.301350  -1.603581   3.472921   0.000888   0.172165   0.005160
 316   4  -1.215399   1.268785  -3.537654  -0.000719   0.026658  -0.026987
 317   5  -1.378457   0.806520  -3.495030  -0.000828   0.026658  -0.031066
 318   6  -1.322279   1.534922  -3.615561  -0.000562   0.026658  -0.021072
 319   4  -1.859797   1.513828   3.749760  -0.000671   0.026661  -0.025169
 320   5  -2.015582   1.048797   3.710126  -0.000856   0.026661  -0.032093
 321   7  -1.977139   1.783917   3.789805  -0.000553   0.026661  -0.020735
 322   5  -0.886917   0.291149  -3.405062  -0.003061   0.228327  -0.013406
 323   4  -0.406363   0.872444  -3.335065  -0.002890   0.228327  -0.012656
 324   5  -1.258395   0.442261   3.721212  -0.002882   0.228357  -0.012619
 325   4  -1.290462   1.198815   3.739999  -0.002934   0.228357  -0.012847
 326   4  -4.296515   3.482789  -1.527012  -0.001392   0.064047  -0.021732
 327   6  -4.140314   3.537017  -1.775191  -0.001212   0.064047  -0.018927
 328   8  -5.006740   2.879925  -1.425938  -0.002112   0.064047  -0.032978
 329   6  -3.770756   4.169908  -1.911084  -0.001006   0.068512  -0.014687
 330   6  -3.054472   5.007882  -1.691535  -0.001929   0.153045  -0.012607
 331   6  -1.797224   5.511559  -1.787722  -0.001891   0.153045  -0.012354
 332   6  -0.738403   5.384726  -2.143079  -0.000842   0.068512  -0.012294
 333   4  -3.644055   4.477450  -1.417676  -0.002007   0.149195  -0.013454
 334   4  -2.455498   5.422427  -1.275184  -0.001741   0.149195  -0.011666
 335   4  -0.975503   5.546522  -1.621837  -0.001930   0.149195  -0.012938
 336   6  -0.644800   2.300421  -3.704578  -0.001563   0.121510  -0.012861
 337   4  -0.649846   1.820104  -3.567084  -0.002158   0.148451  -0.014537
 338   4  -4.527811   3.570480   1.086926  -0.001284   0.064037  -0.020046
 339   7  -4.417222   3.642053   1.354467  -0.001157   0.064037  -0.018069
 340   8  -5.212824   2.958058   0.903142  -0.002112   0.064037  -0.032978
 341   7  -1.121473   5.530219   2.189466  -0.000761   0.068520  -0.011110
 342   7  -2.100872   5.626961   1.646188  -0.001823   0.153066  -0.011913
 343   7  -3.324846   5.110578   1.364730  -0.001924   0.153066  -0.012570
 344   7  -4.073516   4.284783   1.510633  -0.001017   0.068520  -0.014840
 345   4  -1.262536   5.655570   1.625098  -0.001906   0.149208  -0.012776
 346   4  -2.659637   5.500017   1.033214  -0.001727   0.149208  -0.011574
 347   4  -3.860427   4.559546   1.027703  -0.002023   0.149208  -0.013561
 348   7  -1.565600   2.386040   3.931573  -0.001703   0.121539  -0.014012
 349   4  -1.104797   2.210004   3.851965  -0.002125   0.148486  -0.014309
 350   8  -5.794573   2.884630   0.333938  -0.007066   0.291555  -0.024234
 351   8  -5.679720   2.841099  -0.963982  -0.007192   0.291555  -0.024668
 352   4  -4.614433   3.634295  -0.241546  -0.011050   0.804302  -0.013739
 353   6  -1.711034   1.728950  -3.703866  -0.002749   0.185637  -0.014811
 354   6  -2.730250   1.950495  -3.507904  -0.003016   0.185637  -0.016247
 355   5  -2.418196   0.785470  -3.441494  -0.007658   0.509703  -0.015024
 356   7  -3.342216   2.183100   3.409413  -0.003168   0.185670  -0.017061
 357   7  -2.374284   1.981098   3.795440  -0.002746   0.185670  -0.014790
 358   5  -3.030110   1.018114   3.476584  -0.007595   0.509788  -0.014899
 359   8  -5.480195   2.599135  -1.799251  -0.004727   0.321449  -0.014706
 360   8  -5.215396   1.849005  -2.466884  -0.004357   0.321449  -0.013554
 361   6  -4.014957   3.074223  -2.559636  -0.007748   0.642945  -0.012051
 362   8  -5.607111   1.998087   1.957134  -0.004112   0.321268  -0.012799
 363   8  -5.746084   2.700075   1.205300  -0.004531   0.321268  -0.014102
 364   7  -4.434266   3.233631   2.177484  -0.007661   0.642581  -0.011923
 =====================================================

              1160932  WORDS OF DYNAMIC MEMORY USED
 EXECUTION OF GAMESS TERMINATED NORMALLY Mon Nov  1 12:41:10 2021
 DDI: 263640 bytes (0.3 MB / 0 MWords) used by master data server.

 ----------------------------------------
 CPU timing information for all processes
 ========================================
 0: 171.823 + 0.515 = 172.338
 ----------------------------------------
 ddikick.x: exited gracefully