

 Distributed Data Interface kickoff program.
 Initiating 1 compute processes on 1 nodes to run the following command:
 /home/servidor/src/gamess/gamess.00.x METHYLPARABEN 

          ******************************************************
          *      GAMESS VERSION = 30 JUN 2019 R1 Patch 1       *
          *             FROM IOWA STATE UNIVERSITY             *
          * M.W.SCHMIDT, K.K.BALDRIDGE, J.A.BOATZ, S.T.ELBERT, *
          *   M.S.GORDON, J.H.JENSEN, S.KOSEKI, N.MATSUNAGA,   *
          *          K.A.NGUYEN, S.J.SU, T.L.WINDUS,           *
          *       TOGETHER WITH M.DUPUIS, J.A.MONTGOMERY       *
          *         J.COMPUT.CHEM.  14, 1347-1363(1993)        *
          **************** 64 BIT LINUX VERSION ****************

  EXECUTION OF GAMESS BEGUN Thu Sep  9 10:24:06 2021

            ECHO OF THE FIRST FEW INPUT CARDS -
 INPUT CARD>! SELECT RESTRICTED HARTREE-FOCK AS DEFAULT                                     
 INPUT CARD> $contrl scftyp=rhf $end                                                        
 INPUT CARD>                                                                                
 INPUT CARD>! THEORY: HF OR DFT                                                             
 INPUT CARD> $contrl mplevl=0 $end                                                          
 INPUT CARD>                                                                                
 INPUT CARD> $system timlim=10000 mwords=20 $end                                            
 INPUT CARD> $SCF DIRSCF=.TRUE. $end                                                        
 INPUT CARD>                                                                                
 INPUT CARD>! BASIS SETS                                                                    
 INPUT CARD>! KTZVP                                                                         
 INPUT CARD> $contrl ISPHER=1 $END                                                          
 INPUT CARD> $BASIS GBASIS=KTZVP $END                                                       
 INPUT CARD>                                                                                
 INPUT CARD>! One of the following                                                          
 INPUT CARD> $guess guess=HUCKEL $end                                                       
 INPUT CARD>                                                                                
 INPUT CARD> $statpt projct=.FALSE. $end                                                    
 INPUT CARD> $STATPT IFREEZ(1)=1,2,3 $END                                                   
 INPUT CARD>                                                                                
 INPUT CARD>! Optimize the geometry with COSMO effects                                      
 INPUT CARD> $statpt opttol=0.0005 nstep=50 $end                                            
 INPUT CARD> $contrl runtyp=OPTIMIZE maxit=200 $end                                         
 INPUT CARD>                                                                                
 INPUT CARD>! Run COSMO on perfect conductor                                                
 INPUT CARD> $COSGMS PRFCND=.TRUE. $end                                                     
 INPUT CARD>                                                                                
 INPUT CARD>! Specifying RSOLV                                                              
 INPUT CARD> $COSGMS COSRAD = 1.4 $end                                                      
 INPUT CARD>                                                                                
 INPUT CARD>! available memory                                                              
 INPUT CARD> $SYSTEM MWORDS=500 $END                                                        
 INPUT CARD>                                                                                
 INPUT CARD>! Internal Coordinates                                                          
 INPUT CARD> $CONTRL nzvar=1 $END                                                           
 INPUT CARD> $zmat dlc=.t. auto=.t. $END                                                    
 INPUT CARD> $SYSTEM MWORDS=500 $END                                                        
 INPUT CARD>                                                                                
 INPUT CARD> $DATA                                                                          
 INPUT CARD>                                                                                
 INPUT CARD>C1                                                                              
 INPUT CARD>C      6.0      5.7718000000    2.8785000000   -1.0481000000                    
 INPUT CARD>C      6.0      6.4893000000    1.7097000000   -0.7756000000                    
 INPUT CARD>C      6.0      4.3741000000    2.8886000000   -0.9435000000                    
 INPUT CARD>C      6.0      5.8181000000    0.5328000000   -0.3939000000                    
 INPUT CARD>C      6.0      4.4153000000    0.5528000000   -0.2917000000                    
 INPUT CARD>C      6.0      6.5735000000   -0.7110000000   -0.1032000000                    
 INPUT CARD>C      6.0      3.7008000000    1.7233000000   -0.5650000000                    
 INPUT CARD>O      8.0      3.6697000000    4.0086000000   -1.2034000000                    
 INPUT CARD>O      8.0      5.9054000000   -1.8357000000    0.2635000000                    
  500000000 WORDS OF MEMORY AVAILABLE

     ---------
                                                                                 

 THE POINT GROUP OF THE MOLECULE IS C1      
 THE ORDER OF THE PRINCIPAL AXIS IS     0

 ATOM      ATOMIC                      COORDINATES (BOHR)
           CHARGE         X                   Y                   Z
 C           6.0    10.9071204559        5.4395762557       -1.9806218077
 C           6.0    12.2629988521        3.2308645212       -1.4656714761
 C           6.0     8.2658504429        5.4586624881       -1.7829564694
 C           6.0    10.9946147692        1.0068460063       -0.7443630666
 C           6.0     8.3437071536        1.0446405260       -0.5512330706
 C           6.0    12.4221137803       -1.3435951773       -0.1950197219
 C           6.0     6.9934979354        3.2565647946       -1.0676951831
 O           8.0     6.9347274571        7.5751555944       -2.2740962536
 O           8.0    11.1595878479       -3.4689699957        0.4979427978
 C           6.0    12.3176119332       -5.7377750165        1.0450184712
 O           8.0    14.7290912661       -1.3632483275       -0.3669847868
 H           1.0    11.9128326266        7.1337156037       -2.5331776865
 H           1.0    14.3022021655        3.2658244520       -1.6321563356
 H           1.0     7.3094601205       -0.6330582059       -0.0013228082
 H           1.0     4.9531607864        3.2571317124       -0.9110368987
 H           1.0     7.7425853169        9.1379589862       -2.7744956952
 H           1.0    10.8551529913       -7.1509121101        1.5537327071
 H           1.0    13.6294597138       -5.5076063912        2.6681041221
 H           1.0    13.3758584863       -6.4324382896       -0.6300346443

          INTERNUCLEAR DISTANCES (ANGS.)
          ------------------------------

                1 C          2 C          3 C          4 C          5 C     

   1 C       0.0000000    1.3982689 *  1.4016449 *  2.4356580 *  2.7966254 *
   2 C       1.3982689 *  0.0000000    2.4273580 *  1.4075859 *  2.4236445 *
   3 C       1.4016449 *  2.4273580 *  0.0000000    2.8172664 *  2.4253870 *
   4 C       2.4356580 *  1.4075859 *  2.8172664 *  0.0000000    1.4066601 *
   5 C       2.7966254 *  2.4236445 *  2.4253870 *  1.4066601 *  0.0000000  
   6 C       3.7973766    2.5137621 *  4.3012306    1.4839724 *  2.5080969 *
   7 C       2.4201061 *  2.7964745 *  1.3980412 *  2.4350615 *  1.3983109 *
   8 O       2.3916665 *  3.6630722    1.3483795 *  4.1655850    3.6509820  
   9 O       4.8950817    3.7403916    5.1108453    2.4595911 *  2.8694211 *
  10 C       6.1729647    4.9285423    6.4761962    3.7583553    4.2446844  
  11 O       4.2165070    2.8198046 *  5.0290475    2.3490986 *  3.6125798  
  12 H       1.0827958 *  2.1491655 *  2.1605157 *  3.4123322    3.8793997  
  13 H       2.1412531 *  1.0828484 *  3.3994777    2.1710005 *  3.4133252  
  14 H       3.8791859    3.4135732    3.3965580    2.1703855 *  1.0827775 *
  15 H       3.4030957    3.8793436    2.1547909 *  3.4127105    2.1508553 *
  16 H       2.6097911 *  3.9966346    2.0353851 *  4.7570690    4.4528323  
  17 H       6.9201891    5.7697338    7.0370498    4.4855291    4.6707297  
  18 H       6.4564524    5.1663580    6.8760327    4.1338679    4.7695063  
  19 H       6.4564717    5.1663574    6.8760407    4.1338988    4.7695126  

                6 C          7 C          8 O          9 O         10 C     

   1 C       3.7973766    2.4201061 *  2.3916665 *  4.8950817    6.1729647  
   2 C       2.5137621 *  2.7964745 *  3.6630722    3.7403916    4.9285423  
   3 C       4.3012306    1.3980412 *  1.3483795 *  5.1108453    6.4761962  
   4 C       1.4839724 *  2.4350615 *  4.1655850    2.4595911 *  3.7583553  
   5 C       2.5080969 *  1.3983109 *  3.6509820    2.8694211 *  4.2446844  
   6 C       0.0000000    3.7936106    5.6495238    1.3585936 *  2.4167492 *
   7 C       3.7936106    0.0000000    2.3729977 *  4.2676872    5.6428237  
   8 O       5.6495238    2.3729977 *  0.0000000    6.4269738    7.7993275  
   9 O       1.3585936 *  4.2676872    6.4269738    0.0000000    1.3786858 *
  10 C       2.4167492 *  5.6428237    7.7993275    1.3786858 *  0.0000000  
  11 O       1.2242311 *  4.7823418    6.3563913    2.2403341 *  2.7469075 *
  12 H       4.6613021    3.4040451    2.6481884 *  5.8490728    7.0728376  
  13 H       2.7418758 *  3.8791204    4.5294019    4.0911529    5.0803956  
  14 H       2.7334250 *  2.1407917 *  4.5113935    2.5441896 *  3.8245477  
  15 H       4.6575002    1.0828779 *  2.6155421 *  4.9001186    6.2382264  
  16 H       6.2257576    3.2648606    0.9678865 *  7.1256309    8.4801710  
  17 H       3.3147973    6.0358654    8.3146373    2.0333129 *  1.1093217 *
  18 H       2.7493878 *  6.1439936    8.2048663    2.0471641 *  1.1110617 *
  19 H       2.7494408 *  6.1439929    8.2048722    2.0471934 *  1.1110512 *

               11 O         12 H         13 H         14 H         15 H     

   1 C       4.2165070    1.0827958 *  2.1412531 *  3.8791859    3.4030957  
   2 C       2.8198046 *  2.1491655 *  1.0828484 *  3.4135732    3.8793436  
   3 C       5.0290475    2.1605157 *  3.3994777    3.3965580    2.1547909 *
   4 C       2.3490986 *  3.4123322    2.1710005 *  2.1703855 *  3.4127105  
   5 C       3.6125798    3.8793997    3.4133252    1.0827775 *  2.1508553 *
   6 C       1.2242311 *  4.6613021    2.7418758 *  2.7334250 *  4.6575002  
   7 C       4.7823418    3.4040451    3.8791204    2.1407917 *  1.0828779 *
   8 O       6.3563913    2.6481884 *  4.5294019    4.5113935    2.6155421 *
   9 O       2.2403341 *  5.8490728    4.0911529    2.5441896 *  4.9001186  
  10 C       2.7469075 *  7.0728376    5.0803956    3.8245477    6.2382264  
  11 O       0.0000000    4.8736650    2.5494708 *  3.9500100    5.7291282  
  12 H       4.8736650    0.0000000    2.4526385 *  4.9619815    4.3021907  
  13 H       2.5494708 *  2.4526385 *  0.0000000    4.3237164    4.9619973  
  14 H       3.9500100    4.9619815    4.3237164    0.0000000    2.4544530 *
  15 H       5.7291282    4.3021907    4.9619973    2.4544530 *  0.0000000  
  16 H       6.7949888    2.4517638 *  4.6979341    5.3797020    3.5827096  
  17 H       3.8230486    7.8822921    6.0460773    4.0117274    6.4645445  
  18 H       2.7799015 *  7.2904257    5.1826397    4.4535683    6.7955311  
  19 H       2.7799248 *  7.2904212    5.1826600    4.4535627    6.7955212  

               16 H         17 H         18 H         19 H     

   1 C       2.6097911 *  6.9201891    6.4564524    6.4564717  
   2 C       3.9966346    5.7697338    5.1663580    5.1663574  
   3 C       2.0353851 *  7.0370498    6.8760327    6.8760407  
   4 C       4.7570690    4.4855291    4.1338679    4.1338988  
   5 C       4.4528323    4.6707297    4.7695063    4.7695126  
   6 C       6.2257576    3.3147973    2.7493878 *  2.7494408 *
   7 C       3.2648606    6.0358654    6.1439936    6.1439929  
   8 O       0.9678865 *  8.3146373    8.2048663    8.2048722  
   9 O       7.1256309    2.0333129 *  2.0471641 *  2.0471934 *
  10 C       8.4801710    1.1093217 *  1.1110617 *  1.1110512 *
  11 O       6.7949888    3.8230486    2.7799015 *  2.7799248 *
  12 H       2.4517638 *  7.8822921    7.2904257    7.2904212  
  13 H       4.6979341    6.0460773    5.1826397    5.1826600  
  14 H       5.3797020    4.0117274    4.4535683    4.4535627  
  15 H       3.5827096    6.4645445    6.7955311    6.7955212  
  16 H       0.0000000    9.0696251    8.8353549    8.8353547  
  17 H       9.0696251    0.0000000    1.8053442 *  1.8053400 *
  18 H       8.8353549    1.8053442 *  0.0000000    1.8175792 *
  19 H       8.8353547    1.8053400 *  1.8175792 *  0.0000000  

  * ... LESS THAN  3.000


     
     ---------------------------
     ATOM         COORDINATES           RADIUS 
     1   10.9071    5.4396   -1.9806    2.0000
     2   12.2630    3.2309   -1.4657    2.0000
     3    8.2659    5.4587   -1.7830    2.0000
     4   10.9946    1.0068   -0.7444    2.0000
     5    8.3437    1.0446   -0.5512    2.0000
     6   12.4221   -1.3436   -0.1950    2.0000
     7    6.9935    3.2566   -1.0677    2.0000
     8    6.9347    7.5752   -2.2741    1.7200
     9   11.1596   -3.4690    0.4979    1.7200
    10   12.3176   -5.7378    1.0450    2.0000
    11   14.7291   -1.3632   -0.3670    1.7200
    12   11.9128    7.1337   -2.5332    1.3000
    13   14.3022    3.2658   -1.6322    1.3000
    14    7.3095   -0.6331   -0.0013    1.3000
    15    4.9532    3.2571   -0.9110    1.3000
    16    7.7426    9.1380   -2.7745    1.3000
    17   10.8552   -7.1509    1.5537    1.3000
    18   13.6295   -5.5076    2.6681    1.3000
    19   13.3759   -6.4324   -0.6300    1.3000

          ----------------
          
       ***** EQUILIBRIUM GEOMETRY LOCATED *****
            (SUBJECT TO   3 CONSTRAINT(S))
 COORDINATES OF ALL ATOMS ARE (ANGS)
   ATOM   CHARGE       X              Y              Z
 ------------------------------------------------------------
 C           6.0   5.7749137431   2.8638627216  -1.0443300685
 C           6.0   6.4573402036   1.6911162360  -0.7679707789
 C           6.0   4.3918503891   2.8914237767  -0.9456478983
 C           6.0   5.7963920244   0.5208408417  -0.3889067390
 C           6.0   4.4053864451   0.5768988005  -0.2976808170
 C           6.0   6.6096338834  -0.7197082044  -0.1035674614
 C           6.0   3.7134385271   1.7410526342  -0.5708754053
 O           8.0   3.6519393009   3.9871253243  -1.1959753649
 O           8.0   5.9049961925  -1.7793204932   0.2476210249
 C           6.0   6.5293802855  -3.0428091501   0.5539767019
 O           8.0   7.8008516031  -0.7401180080  -0.1893206986
 H           1.0   6.3092522873   3.7516668850  -1.3344842878
 H           1.0   7.5264495089   1.6997956644  -0.8526370789
 H           1.0   3.8428644424  -0.2892718017  -0.0115191507
 H           1.0   2.6426162849   1.7783628476  -0.4989689625
 H           1.0   4.1729532553   4.7374814849  -1.4466463338
 H           1.0   5.7151463761  -3.7075903890   0.8028433349
 H           1.0   7.1967443971  -2.9699071333   1.4017326523
 H           1.0   7.0666584404  -3.4453308607  -0.2937728508


                     --------------------
                     INTERNAL COORDINATES
                     --------------------

                 - - ATOMS - -         COORDINATE      COORDINATE
 NO.   TYPE    I  J  K  L  M  N        (BOHR,RAD)       (ANG,DEG)
 ----------------------------------------------------------------
   1 STRETCH   1  2                     2.6167176       1.3847074
   2 STRETCH   1 12                     2.0334570       1.0760592
   3 STRETCH   1  3                     2.6207727       1.3868533
   4 STRETCH   2  4                     2.6389173       1.3964550
   5 STRETCH   2 13                     2.0267154       1.0724917
   6 STRETCH   3  7                     2.6212419       1.3871016
   7 STRETCH   3  8                     2.5428538       1.3456204
   8 STRETCH   4  6                     2.8545140       1.5105439
   9 STRETCH   4  5                     2.6363954       1.3951205
  10 STRETCH   5 14                     2.0252459       1.0717141
  11 STRETCH   5  7                     2.6107516       1.3815503
  12 STRETCH   6 11                     2.2572299       1.1944747
  13 STRETCH   6  9                     2.4945999       1.3200855
  14 STRETCH   7 15                     2.0293430       1.0738821
  15 STRETCH   8 16                     1.7900861       0.9472728
  16 STRETCH   9 10                     2.7254755       1.4422596
  17 STRETCH  10 19                     2.0435015       1.0813745
  18 STRETCH  10 18                     2.0435093       1.0813786
  19 STRETCH  10 17                     2.0412938       1.0802063
  20 BEND      1  3  8                  2.1547281     123.4568260
  21 BEND      1  3  7                  2.0834517     119.3729896
  22 BEND      1  2  4                  2.1301865     122.0506963
  23 BEND      1  2 13                  2.0585775     117.9478046
  24 BEND      2  1 12                  2.1034827     120.5206794
  25 BEND      2  1  3                  2.0876116     119.6113366
  26 BEND      2  4  5                  2.0442746     117.1283080
  27 BEND      2  4  6                  2.0768196     118.9929998
  28 BEND      3  8 16                  1.9733807     113.0663847
  29 BEND      3  7  5                  2.1028478     120.4843040
  30 BEND      3  7 15                  2.0680002     118.4876840
  31 BEND      3  1 12                  2.0920910     119.8679838
  32 BEND      4  5  7                  2.1179983     121.3523654
  33 BEND      4  5 14                  2.1040260     120.5518087
  34 BEND      4  6  9                  2.0065462     114.9666297
  35 BEND      4  6 11                  2.1381240     122.5054809
  36 BEND      4  2 13                  2.0944213     120.0014991
  37 BEND      5  4  6                  2.1620911     123.8786921
  38 BEND      5  7 15                  2.1123373     121.0280120
  39 BEND      6  9 10                  2.1277637     121.9118813
  40 BEND      7  3  8                  2.0450055     117.1701844
  41 BEND      7  5 14                  2.0611610     118.0958259
  42 BEND      9 10 17                  1.8356315     105.1739384
  43 BEND      9 10 18                  1.9548022     112.0019139
  44 BEND      9 10 19                  1.9548322     112.0036321
  45 BEND      9  6 11                  2.1385151     122.5278894
  46 BEND     17 10 18                  1.9029306     109.0298918
  47 BEND     17 10 19                  1.9029152     109.0290107
  48 BEND     18 10 19                  1.9103407     109.4544591
  49 TORSION   1  3  8 16               0.0001885       0.0108016
  50 TORSION   1  3  7 15              -3.1415737    -179.9989131
  51 TORSION   1  3  7  5              -0.0000077      -0.0004401
  52 TORSION   1  2  4  5               0.0000905       0.0051855
  53 TORSION   1  2  4  6              -3.1415678    -179.9985784
  54 TORSION   2  4  6  9              -3.1414309    -179.9907344
  55 TORSION   2  4  6 11               0.0001738       0.0099589
  56 TORSION   2  1  3  8               3.1415893     179.9998077
  57 TORSION   2  4  5  7              -0.0001084      -0.0062081
  58 TORSION   2  4  5 14               3.1415536     179.9977624
  59 TORSION   2  1  3  7              -0.0000105      -0.0006005
  60 TORSION   3  1  2 13              -3.1415690    -179.9986449
  61 TORSION   3  1  2  4              -0.0000328      -0.0018774
  62 TORSION   3  7  5 14              -3.1415907    -179.9998906
  63 TORSION   3  7  5  4               0.0000696       0.0039854
  64 TORSION   4  6  9 10              -3.1415296    -179.9963856
  65 TORSION   4  5  7 15              -3.1415504    -179.9975807
  66 TORSION   4  2  1 12              -3.1415395    -179.9969543
  67 TORSION   5  7  3  8               3.1415783     179.9991772
  68 TORSION   5  4  6 11              -3.1414893    -179.9940760
  69 TORSION   5  4  6  9               0.0000913       0.0052307
  70 TORSION   5  4  2 13              -3.1415597    -179.9981117
  71 TORSION   6  9 10 17              -3.1415700    -179.9987038
  72 TORSION   6  9 10 18               1.0770344      61.7095233
  73 TORSION   6  9 10 19              -1.0769918     -61.7070851
  74 TORSION   6  4  2 13              -0.0000327      -0.0018757
  75 TORSION   6  4  5 14               0.0000302       0.0017279
  76 TORSION   6  4  5  7               3.1415535     179.9977574
  77 TORSION   7  3  8 16              -3.1413972    -179.9887986
  78 TORSION   7  3  1 12               3.1414968     179.9945090
  79 TORSION   8  3  7 15               0.0000123       0.0007041
  80 TORSION   8  3  1 12              -0.0000887      -0.0050828
  81 TORSION  10  9  6 11               0.0000510       0.0029209
  82 TORSION  12  1  2 13               0.0001096       0.0062781
  83 TORSION  14  5  7 15              -0.0000254      -0.0014567

          COSab RESULTS
 =====================================================

   Dielectric Constant                  = INFTY
   Basic Grid Size                      =                 1082
   Number of Segments                   =                   92
   Number of Segments located on spheres=                  331
   Number of Segments of the cavity     =                  763
   Solvent Radius (rsolv)               = 1.40
   Outlying Charge Error Method         = double cavity

 =====================================================

  Total solvated Energy (a.u.)          =  -532.3999568308
  Total Energy corrected (a.u.)         =  -532.4002786819

  Outlying charge effect (a.u.)         =    -0.0003218511
  Outlying charge effect (kcal/mol)     =    -0.2019647842

  Dielectric Energy (a.u.)              =    -0.0233396625
  Dielectric energy corr. (a.u.)        =    -0.0236615136

  Sum of polarization charges           =     0.0250911397
  Sum of polarization charges(cor.)     =    -0.0250911397

  Total surface area of cavity (A**2)   =  183.42
  Total volume of cavity (A**3)         =  179.98

 =====================================================
 NPS=                   763
NR.  ATOM  (X, Y, Z)(a.u.)                  CHARGE(e)  AREA(A**2) SIGMA(e/A**2)
   1   1  10.681567   5.679218   1.789369   0.000801   0.139368   0.005745
   2   1  10.741820   8.395865   0.339709   0.000293   0.325193   0.000902
   3   1  13.494418   7.114939   0.199116   0.000986   0.278737   0.003537
   4   1  11.393359   5.895258  -5.691019   0.001528   0.371649   0.004111
   5   1  11.854683   6.837132  -5.344894   0.000761   0.371649   0.002047
   6   1  13.979361   6.119163  -4.066721  -0.000086   0.092912  -0.000921
   7   1  13.948399   7.228385  -0.642681  -0.000097   0.278737  -0.000348
   8   1  11.425694   8.750442  -0.277744   0.000026   0.232280   0.000112
   9   1  11.700923   8.082155   0.582514   0.001009   0.278737   0.003619
  10   1  12.754086   7.434415   0.634974   0.000897   0.232280   0.003862
  11   1  13.548077   5.958104  -4.627250   0.000039   0.185824   0.000211
  12   1  12.567701   5.539516  -5.369088   0.001734   0.418105   0.004146
  13   1  10.558213   6.830657  -5.458551   0.000426   0.325193   0.001310
  14   1  10.913254   7.524950   1.160072   0.001591   0.325193   0.004893
  15   1  10.866939   6.548978   1.630548   0.001264   0.232280   0.005441
  16   1  11.531824   6.225178   1.665164   0.001762   0.232280   0.007588
  17   1  12.607658   6.640223   1.173504   0.001391   0.278737   0.004989
  18   1  11.476180   4.668139  -5.636006   0.003323   0.511017   0.006503
  19   1  10.316190   5.513781  -5.704148   0.002017   0.418105   0.004825
  20   1  12.892199   6.276341  -5.075091   0.000399   0.232280   0.001719
  21   1  12.567697   8.088007   0.120478   0.000804   0.325193   0.002472
  22   1  10.993666   7.510060  -5.116041  -0.000250   0.139368  -0.001795
  23   1  10.317162   3.985522  -5.422367   0.002872   0.464561   0.006182
  24   1  11.889286   7.164141   1.229746   0.001404   0.278737   0.005038
  25   2  10.947491   2.303409  -4.902737   0.000446   0.092912   0.004802
  26   2  13.453362   1.240145  -4.433796   0.000134   0.139368   0.000958
  27   2  14.050188   3.963582  -4.657676   0.000416   0.278737   0.001492
  28   2  13.986319   4.236641   1.714044   0.000471   0.325193   0.001447
  29   2  14.956736   3.832366   1.057471  -0.000004   0.371649  -0.000012
  30   2  15.000189   5.719618  -1.154940  -0.000436   0.092912  -0.004694
  31   2  14.674842   4.347012  -4.067912  -0.000270   0.232280  -0.001163
  32   2  13.953120   1.846062  -4.516929   0.000108   0.325193   0.000332
  33   2  13.818381   3.101760  -4.866620   0.000382   0.232280   0.001643
  34   2  14.797218   5.595350  -0.111821  -0.000096   0.232280  -0.000415
  35   2  14.236015   5.125685   1.083460   0.000733   0.418105   0.001753
  36   2  14.169376   3.206641   1.776117   0.000252   0.278737   0.000906
  37   2  12.721211   1.520638  -4.799296   0.000889   0.325193   0.002733
  38   2  11.649248   1.841113  -4.935947   0.000824   0.232280   0.003549
  39   2  11.910661   2.564815  -5.166224   0.001118   0.232280   0.004814
  40   2  12.917452   3.311643  -5.160682   0.000735   0.278737   0.002638
  41   2  13.057022   4.791220   1.866672   0.001691   0.464561   0.003640
  42   2  13.168475   3.479734   2.191638   0.000848   0.325193   0.002607
  43   2  14.888204   4.933741   0.561490  -0.000160   0.232280  -0.000690
  44   2  14.475030   2.587649  -4.409396  -0.000108   0.371649  -0.000292
  45   2  11.939423   4.142891   2.198110   0.001876   0.464561   0.004039
  46   2  12.992630   2.428894  -5.066791   0.000610   0.278737   0.002189
  47   3   6.863323   6.671795   1.493718  -0.000000   0.092912  -0.000001
  48   3   7.473242   5.342387  -5.473059  -0.000080   0.139368  -0.000572
  49   3   7.227526   7.058129   1.467845   0.000027   0.092912   0.000290
  50   3   8.753588   7.647772   1.264064  -0.000232   0.232280  -0.000999
  51   3   8.016188   5.982208  -5.520040  -0.000163   0.185824  -0.000878
  52   3   7.721989   6.549083   1.786985   0.000005   0.278737   0.000020
  53   3   8.700999   5.882417   1.947676   0.000568   0.278737   0.002037
  54   3   9.014336   6.637044   1.733934   0.000312   0.185824   0.001679
  55   3   9.050902   8.141647   0.772215  -0.000331   0.139368  -0.002377
  56   3   8.321778   5.155820  -5.553812  -0.000075   0.325193  -0.000229
  57   3   6.934966   4.746654  -5.237814  -0.000263   0.371649  -0.000708
  58   3   8.212787   3.984304  -5.263688   0.000837   0.418105   0.002001
  59   3   8.184663   7.259880   1.536523  -0.000431   0.278737  -0.001545
  60   3   8.648075   6.336263  -5.447860  -0.000293   0.139368  -0.002102
  61   4  10.208417  -0.875076  -3.939898   0.000476   0.139368   0.003419
  62   4  11.504710  -0.100395  -4.313194   0.000924   0.232280   0.003976
  63   4  10.752551  -0.475729  -4.215192   0.001012   0.185824   0.005448
  64   4  10.203419   0.006917  -4.307918   0.000588   0.139368   0.004218
  65   4  10.954638   2.516755   2.719888   0.002076   0.325193   0.006384
  66   4  11.931238   1.896534   2.800077   0.001341   0.278737   0.004810
  67   4  10.840414   1.271334   3.031916   0.001434   0.371649   0.003858
  68   4  10.563380   0.594619  -4.473926   0.001591   0.232280   0.006850
  69   5   8.471946   0.947183  -4.336418   0.000768   0.185824   0.004133
  70   5   5.949121  -0.435033  -3.075158   0.000503   0.278737   0.001803
  71   5   7.500460   0.843525   3.117629   0.000429   0.278737   0.001539
  72   5   7.073070  -0.150506   2.780769  -0.000005   0.371649  -0.000014
  73   5   5.458682  -0.775888  -2.170758  -0.000224   0.278737  -0.000802
  74   5   5.079740   0.391281   1.244191  -0.000470   0.092912  -0.005064
  75   5   6.604096  -1.085329  -3.129625   0.000528   0.325193   0.001623
  76   5   7.668002  -1.684358  -3.043366   0.000194   0.278737   0.000697
  77   5   8.248947   0.034247   3.065615   0.000342   0.418105   0.000817
  78   5   6.457892   0.994883   2.722156   0.000589   0.325193   0.001813
  79   5   5.605839   0.648199   2.024979   0.000241   0.185824   0.001298
  80   5   6.892533  -0.169293  -3.825366   0.001254   0.325193   0.003856
  81   5   7.786292   0.301831  -4.219386   0.000800   0.232280   0.003442
  82   5   8.384605  -0.126957  -4.140138   0.001028   0.232280   0.004424
  83   5   8.459446  -1.227596  -3.544821   0.000457   0.278737   0.001641
  84   5   8.753739   1.242656   3.189422   0.001407   0.511017   0.002754
  85   5   7.501041   1.819942   3.053108   0.001298   0.371649   0.003493
  86   5   6.887472  -1.781096  -2.555914  -0.000346   0.325193  -0.001065
  87   5   6.112775   0.261691   2.387726  -0.000201   0.139368  -0.001442
  88   5   8.837146   2.566121   2.878915   0.002142   0.464561   0.004610
  89   5   7.673226  -0.855101  -3.736699   0.000584   0.278737   0.002095
  90   6  11.268173  -0.835712   3.341998  -0.001443   0.232280  -0.006210
  91   6  13.948048   0.642757   2.658800  -0.000309   0.139368  -0.002214
  92   6  13.260689  -2.372997  -3.754495  -0.000483   0.139368  -0.003466
  93   6  10.824421  -2.674516  -3.323170  -0.001247   0.185824  -0.006713
  94   6  13.789575   0.050461   3.061097  -0.000619   0.185824  -0.003333
  95   6  13.944558  -0.941577   3.267596  -0.000625   0.232280  -0.002692
  96   6  13.505878  -3.093133  -3.397206  -0.000437   0.185824  -0.002352
  97   6  13.060377   0.462894   3.065606  -0.000966   0.185824  -0.005198
  98   6  12.075924  -0.123756   3.351676  -0.001672   0.232280  -0.007199
  99   6  12.215220  -1.146858   3.567663  -0.002529   0.325193  -0.007777
 100   6  13.187817  -1.263590   3.517573  -0.001394   0.185824  -0.007502
 101   6  11.909360  -3.241678  -3.421574  -0.002319   0.278737  -0.008320
 102   6  12.738923  -2.985076  -3.598925  -0.001714   0.278737  -0.006149
 103   6  12.962432  -1.506114  -3.942738  -0.002172   0.464561  -0.004675
 104   6  11.743894  -2.284209  -3.783606  -0.003265   0.418105  -0.007808
 105   6  13.120046  -0.398317   3.404677  -0.001924   0.278737  -0.006901
 106   7   8.193828   4.189091   2.398563   0.000804   0.139368   0.005768
 107   7   5.411584   2.601064   2.272451   0.001153   0.325193   0.003546
 108   7   5.129466   2.339101  -4.211790   0.001712   0.371649   0.004607
 109   7   4.264354   2.495715  -3.543356   0.000932   0.371649   0.002508
 110   7   4.703952   5.256558   1.171831   0.000128   0.232280   0.000553
 111   7   4.670262   2.903360   1.858154   0.000571   0.278737   0.002048
 112   7   4.150257   0.827618  -1.077275  -0.000324   0.092912  -0.003487
 113   7   4.619903   1.908070   1.495364  -0.000030   0.185824  -0.000163
 114   7   5.372823   3.697131   2.299661   0.001432   0.325193   0.004402
 115   7   5.439362   5.165814   1.797970   0.001163   0.371649   0.003131
 116   7   4.980935   3.514195  -4.254791   0.001213   0.371649   0.003265
 117   7   4.855739   1.262834  -3.424377   0.001612   0.371649   0.004338
 118   7   4.298894   0.868765  -2.094276   0.000023   0.185824   0.000123
 119   7   6.373069   3.494042   2.639737   0.002225   0.325193   0.006842
 120   7   7.346487   3.971774   2.624073   0.001351   0.232280   0.005814
 121   7   7.303941   4.682998   2.422911   0.001601   0.232280   0.006891
 122   7   6.382551   5.274927   2.074248   0.000848   0.232280   0.003652
 123   7   6.103262   2.891176  -4.724277   0.002779   0.511017   0.005439
 124   7   5.947336   1.542060  -4.254270   0.002427   0.418105   0.005805
 125   7   4.314130   3.802295  -3.670004   0.000164   0.278737   0.000588
 126   7   4.803779   4.308831   1.810213   0.000832   0.278737   0.002983
 127   7   4.389965   1.435229   0.906235  -0.000103   0.092912  -0.001113
 128   7   4.278722   1.363239  -2.831280   0.000448   0.232280   0.001931
 129   7   7.281489   2.208841  -4.690640   0.003088   0.464561   0.006647
 130   7   6.224233   4.500956   2.412474   0.001420   0.278737   0.005093
 131   8   4.385945   6.854969  -4.203377   0.005390   0.309230   0.017431
 132   8   3.951486   8.267483  -1.108132   0.004227   0.274871   0.015376
 133   8   5.211525   9.931993  -3.660827   0.000422   0.274871   0.001536
 134   8   6.636462  10.175253  -0.383523   0.001798   0.343589   0.005232
 135   8   7.092492   8.212804  -5.433072   0.001148   0.240512   0.004774
 136   8   4.005459   6.666941  -3.454541   0.002373   0.137436   0.017265
 137   8   3.825164   7.510561  -1.210131   0.003227   0.206154   0.015655
 138   8   3.862959   7.475378  -3.413528   0.004308   0.274871   0.015671
 139   8   3.658372   7.749758  -2.208186   0.005433   0.309230   0.017569
 140   8   4.425979   7.874425  -0.180959   0.007001   0.412307   0.016980
 141   8   5.337740   7.927582   0.562339   0.004282   0.274871   0.015577
 142   8   5.063387   6.343025  -4.661610   0.003902   0.274871   0.014196
 143   8   5.395685  10.390826  -2.634237  -0.000634   0.274871  -0.002306
 144   8   5.859905  10.485044  -1.379629   0.000357   0.309230   0.001154
 145   8   7.401736   9.751758   0.063334   0.001148   0.240512   0.004772
 146   8   8.187697   9.345668   0.112575   0.000228   0.206154   0.001107
 147   8   7.796291   7.708807  -5.379833   0.000019   0.137436   0.000139
 148   8   6.347620   8.778672  -5.211404   0.001090   0.240512   0.004532
 149   8   5.727441   9.426795  -4.627866   0.000677   0.309230   0.002188
 150   8   4.327816   8.050668  -4.177400   0.005070   0.343589   0.014757
 151   8   4.710521   9.076826  -4.100493   0.003542   0.377948   0.009370
 152   8   4.490008   9.640182  -2.823449   0.003768   0.481025   0.007834
 153   8   3.995043   8.956046  -1.946115   0.005046   0.377948   0.013352
 154   8   4.495020   9.152492  -0.791218   0.005897   0.412307   0.014302
 155   8   5.478395   9.789055  -0.400567   0.005156   0.446666   0.011543
 156   8   6.457347   9.351684   0.398097   0.004158   0.343589   0.012103
 157   8   6.270322   8.390418   0.811461   0.004372   0.309230   0.014137
 158   8   6.958353   7.274525  -5.499460   0.001966   0.206154   0.009538
 159   8   6.159709   7.817579  -5.412008   0.003049   0.274871   0.011092
 160   8   5.123046   7.410149  -4.978049   0.004760   0.309230   0.015394
 161   8   3.710061   7.091114  -2.690058   0.002201   0.137436   0.016011
 162   8   3.908737   8.493833  -3.090653   0.005242   0.377948   0.013869
 163   8   5.288446   8.822621   0.250867   0.005347   0.343589   0.015562
 164   8   5.918270   6.787795  -5.266865   0.003868   0.309230   0.012510
 165   8   4.896398  10.011056  -1.617704   0.003038   0.412307   0.007369
 166   8   7.376580   8.887183   0.656972   0.002184   0.240512   0.009082
 167   8   5.266317   8.440193  -4.919340   0.004449   0.377948   0.011772
 168   9   8.678417  -4.453944  -1.326721   0.002973   0.206154   0.014423
 169   9   8.415457  -4.761323  -0.572084   0.002268   0.206154   0.011002
 170   9   8.331724  -4.170948   1.853006   0.001903   0.103077   0.018464
 171   9   8.865170  -3.320917   2.770557   0.002105   0.137436   0.015314
 172   9   9.504765  -3.352812   3.265906   0.002739   0.206154   0.013288
 173   9   9.305928  -4.670075  -1.860465   0.002304   0.171795   0.013414
 174   9  10.274229  -2.258571   3.394307   0.001521   0.137436   0.011064
 175   9  10.530514  -2.753047   3.598196   0.001210   0.171795   0.007044
 176   9   9.966815  -3.845426  -2.517103   0.000675   0.068718   0.009830
 177   9   9.374546  -4.086766  -2.150520   0.002161   0.171795   0.012582
 178   9   8.162160  -4.620220   0.518685   0.001987   0.137436   0.014454
 179   9   8.702923  -3.954261   2.513152   0.001238   0.137436   0.009008
 180   9   9.605068  -2.704154   3.245915   0.002504   0.171795   0.014576
 181   9  10.277950  -4.341632  -2.503569   0.001306   0.171795   0.007603
 182  10   9.443296  -6.756450  -1.163988  -0.000489   0.278737  -0.001754
 183  10  11.636353  -8.761049  -1.126840  -0.000163   0.232280  -0.000701
 184  10  13.420953  -9.055673   2.525413  -0.001547   0.371649  -0.004163
 185  10  11.593674  -6.290134   4.712569   0.000125   0.371649   0.000337
 186  10  15.983263  -6.387313   0.275031  -0.000307   0.278737  -0.001102
 187  10   9.202683  -5.464434   3.136771  -0.000360   0.139368  -0.002580
 188  10  10.977981  -7.099856   4.304256  -0.000332   0.278737  -0.001190
 189  10  12.297196  -9.210046   2.567101  -0.001716   0.418105  -0.004103
 190  10  10.898969  -8.766162  -0.717947  -0.000253   0.371649  -0.000681
 191  10   8.950449  -6.500730  -0.449875  -0.000471   0.232280  -0.002027
 192  10  15.700446  -7.470441   0.893214  -0.000493   0.371649  -0.001325
 193  10  15.964565  -6.717059   1.497037  -0.000231   0.278737  -0.000829
 194  10   9.994301  -6.697843  -1.761981  -0.000482   0.278737  -0.001731
 195  10  10.934395  -7.892342  -1.732129  -0.000074   0.371649  -0.000200
 196  10  12.340184  -9.307314  -0.229987  -0.000777   0.464561  -0.001673
 197  10  12.938458  -9.470455   1.335646  -0.001611   0.418105  -0.003853
 198  10  13.002465  -8.588870   3.452056  -0.000958   0.371649  -0.002577
 199  10  12.035701  -7.317871   4.472412   0.000060   0.371649   0.000161
 200  10  10.525065  -5.743983   4.362690  -0.000393   0.464561  -0.000846
 201  10   9.778055  -5.031129   3.732038  -0.000344   0.278737  -0.001234
 202  10  10.483388  -5.969085  -2.238557  -0.000200   0.185824  -0.001076
 203  10  11.489361  -5.858120  -2.634330  -0.000738   0.278737  -0.002649
 204  10  14.982547  -8.447262   0.906189  -0.001326   0.418105  -0.003172
 205  10  14.258721  -8.926283   1.760778  -0.001991   0.464561  -0.004286
 206  10  14.229454  -8.419718   2.939608  -0.001293   0.278737  -0.004640
 207  10  11.613754  -5.153040   4.707754  -0.000448   0.371649  -0.001206
 208  10  12.135528  -3.843297   4.303716  -0.000631   0.232280  -0.002717
 209  10  16.110006  -5.997504   1.072612   0.000114   0.232280   0.000493
 210  10   9.781435  -5.894854   3.825962  -0.000294   0.139368  -0.002110
 211  10  12.048289  -8.318744   3.803998  -0.000493   0.278737  -0.001769
 212  10  12.008348  -9.504283   0.762193  -0.001206   0.371649  -0.003244
 213  10  10.048605  -7.751918  -1.196386  -0.000125   0.325193  -0.000383
 214  10  15.219505  -7.987633   2.036224  -0.001422   0.418105  -0.003401
 215  10  10.958450  -6.855789  -2.293270  -0.000378   0.418105  -0.000905
 216  10  13.754609  -9.214126   0.517737  -0.001962   0.464561  -0.004223
 217  10  12.868458  -7.896651   4.112126  -0.000625   0.232280  -0.002690
 218  10  10.927197  -4.461846   4.307566  -0.000488   0.371649  -0.001312
 219  11  17.980112  -1.368040  -0.631396   0.005144   0.377948   0.013610
 220  11  16.510148   0.774540   1.289586   0.004729   0.274871   0.017203
 221  11  16.043242  -2.286860  -3.200479   0.004871   0.343589   0.014177
 222  11  16.469830  -2.010936   2.325985   0.004575   0.274871   0.016645
 223  11  17.815405  -0.487154   0.175868   0.005866   0.412307   0.014227
 224  11  17.249047   0.401775   0.659704   0.005709   0.343589   0.016617
 225  11  17.740152  -0.466999  -1.197157   0.004996   0.343589   0.014541
 226  11  17.276225   0.049012  -1.787436   0.005672   0.309230   0.018341
 227  11  17.664060  -1.756097  -1.734460   0.005767   0.412307   0.013986
 228  11  16.986461  -2.277411  -2.537754   0.005461   0.377948   0.014448
 229  11  17.770648  -2.539731  -0.652010   0.005451   0.377948   0.014424
 230  11  17.240374  -3.465446  -0.577685   0.006524   0.343589   0.018989
 231  11  17.842084  -1.886663   0.486420   0.006862   0.481025   0.014265
 232  11  17.340938  -1.986596   1.502802   0.004663   0.309230   0.015078
 233  11  16.588134  -0.274956  -2.785065   0.004664   0.274871   0.016970
 234  11  16.335162  -1.251908  -3.186759   0.005192   0.343589   0.015110
 235  11  16.206127  -3.260376  -2.583360   0.005733   0.343589   0.016686
 236  11  16.789722  -3.586708  -1.615373   0.004434   0.240512   0.018435
 237  11  17.025026  -2.699908   1.554484   0.003583   0.206154   0.017380
 238  11  16.770780  -1.111350   2.164938   0.004988   0.343589   0.014516
 239  11  16.744024  -0.064216   1.827132   0.005019   0.343589   0.014609
 240  11  14.984836  -1.209578  -3.593445   0.001851   0.171795   0.010772
 241  11  15.150823  -1.950106  -3.534697   0.003163   0.240512   0.013149
 242  11  15.208509  -2.974705  -3.161772   0.004127   0.309230   0.013345
 243  11  15.752478  -1.347236   2.730907   0.003617   0.274871   0.013158
 244  11  15.804761   0.543923   2.021430   0.003886   0.274871   0.014138
 245  11  17.446509   0.399554  -0.475755   0.004998   0.274871   0.018182
 246  11  17.236829  -1.025437  -2.406790   0.005078   0.343589   0.014779
 247  11  17.288193  -2.926274  -1.678789   0.004063   0.274871   0.014781
 248  11  17.312550  -3.150708   0.582661   0.006914   0.412307   0.016769
 249  11  17.464581  -0.772635   1.302790   0.005397   0.377948   0.014279
 250  11  15.629788  -0.730374  -3.412093   0.003883   0.240512   0.016146
 251  11  15.669368  -0.314682   2.562635   0.005003   0.377948   0.013237
 252  12  13.356000   8.940354  -3.267274  -0.005034   0.490692  -0.010260
 253  12  12.229776   9.369736  -1.660437  -0.002895   0.353299  -0.008195
 254  12  12.737279   7.960810  -4.669522  -0.002169   0.353299  -0.006139
 255  12  14.239860   7.517912  -3.216560  -0.003033   0.333671  -0.009089
 256  12  13.775644   8.303164  -1.459154  -0.001901   0.314043  -0.006053
 257  12  12.440722   9.462222  -2.892769  -0.004523   0.412182  -0.010972
 258  12  12.225311   8.812768  -4.246436  -0.005196   0.510320  -0.010182
 259  12  13.654596   7.865109  -4.082077  -0.003742   0.471065  -0.007943
 260  12  14.106798   8.210837  -2.432722  -0.004211   0.471065  -0.008940
 261  12  13.124122   9.030114  -1.612776  -0.003357   0.412182  -0.008144
 262  13  16.607245   3.349029  -2.186968  -0.005187   0.471065  -0.011012
 263  13  16.048733   3.755909  -0.060167  -0.003015   0.372926  -0.008084
 264  13  15.913495   4.991010  -1.724249  -0.002546   0.274788  -0.009265
 265  13  15.848905   3.795993  -3.357815  -0.002729   0.392554  -0.006952
 266  13  16.598417   3.477439  -1.043972  -0.004310   0.412182  -0.010456
 267  13  16.143253   4.585427  -0.931853  -0.003214   0.412182  -0.007799
 268  13  16.050502   4.519217  -2.604578  -0.004054   0.431809  -0.009388
 269  13  15.973237   2.705464  -3.258931  -0.003861   0.431809  -0.008940
 270  14   5.856275  -2.318622   0.937029  -0.005438   0.490692  -0.011082
 271  14   6.190957  -2.370051  -1.272074  -0.003017   0.372926  -0.008090
 272  14   4.891890  -1.173555  -0.179483  -0.002488   0.274788  -0.009055
 273  14   5.606394  -1.080268   1.713018  -0.002676   0.392554  -0.006816
 274  14   5.953620  -2.621062  -0.163816  -0.004375   0.412182  -0.010613
 275  14   5.273649  -1.804686  -0.728220  -0.003195   0.412182  -0.007752
 276  14   5.045551  -1.194495   0.816654  -0.003981   0.431809  -0.009220
 277  14   6.480137  -1.681757   2.011804  -0.003969   0.431809  -0.009191
 278  15   2.539815   3.309873  -0.840889  -0.005519   0.549575  -0.010041
 279  15   3.384026   2.706012   0.793509  -0.002284   0.372926  -0.006125
 280  15   3.252222   1.629787  -1.021305  -0.002571   0.353299  -0.007276
 281  15   3.167539   3.055056  -2.557359  -0.002028   0.353299  -0.005741
 282  15   3.377372   4.650400   0.383249  -0.002909   0.372926  -0.007801
 283  15   3.038911   2.119126  -0.123079  -0.004238   0.490692  -0.008636
 284  15   2.934470   2.344125  -1.815218  -0.003769   0.490692  -0.007681
 285  15   2.947448   4.077209  -2.097897  -0.004623   0.510320  -0.009058
 286  15   2.841541   4.533050  -0.774855  -0.004125   0.431809  -0.009554
 287  15   3.083664   3.662605   0.572092  -0.003826   0.490692  -0.007797
 288  16   9.106981  10.947918  -3.483544  -0.009697   0.431809  -0.022457
 289  16   7.534625  11.199032  -1.803676  -0.006473   0.372926  -0.017356
 290  16   6.948513  10.930449  -3.849375  -0.007960   0.431809  -0.018435
 291  16   8.453551   9.360892  -5.088758  -0.007782   0.451437  -0.017237
 292  16   9.109967  10.435835  -1.205304  -0.007045   0.353299  -0.019941
 293  16   7.971805  11.373228  -3.143608  -0.008542   0.412182  -0.020723
 294  16   8.187151  10.739949  -4.391913  -0.008635   0.431809  -0.019997
 295  16   9.187177  10.119227  -4.460107  -0.008975   0.412182  -0.021775
 296  16   9.523706  10.765151  -2.475637  -0.007332   0.314043  -0.023348
 297  16   8.665208  11.206771  -2.145572  -0.007132   0.353299  -0.020186
 298  16   6.879161  11.193133  -2.693497  -0.005839   0.353299  -0.016526
 299  16   7.347808  10.122564  -4.825846  -0.006063   0.392554  -0.015445
 300  16   8.224728  10.731321  -1.073615  -0.004565   0.314043  -0.014535
 301  17   8.954524  -8.511840   2.119304  -0.005518   0.608459  -0.009069
 302  17   9.784275  -8.964604   0.436200  -0.002318   0.392554  -0.005904
 303  17   8.530849  -7.279722   0.616568  -0.002295   0.353299  -0.006496
 304  17   8.631188  -6.699634   2.629391  -0.002269   0.353299  -0.006421
 305  17  10.048185  -8.047262   3.611504  -0.002246   0.372926  -0.006021
 306  17  10.701772  -9.366587   2.191444  -0.002597   0.412182  -0.006301
 307  17   8.915903  -8.248537   0.546588  -0.003500   0.490692  -0.007132
 308  17   8.360624  -7.218552   1.715272  -0.004184   0.510320  -0.008200
 309  17   9.119363  -7.481858   3.244662  -0.003618   0.510320  -0.007090
 310  17  10.140271  -8.871681   2.973278  -0.003551   0.471065  -0.007538
 311  17   9.976092  -9.316411   1.376669  -0.003668   0.471065  -0.007786
 312  18  15.057820  -5.704158   4.623997  -0.004594   0.529948  -0.008669
 313  18  15.978201  -5.234517   3.134626  -0.002170   0.294415  -0.007371
 314  18  15.513992  -6.940667   3.427794  -0.002383   0.353299  -0.006746
 315  18  13.784544  -6.846122   4.765178  -0.002337   0.372926  -0.006268
 316  18  13.294527  -4.870799   4.970964  -0.002341   0.412182  -0.005680
 317  18  15.358526  -4.672333   4.083707  -0.003660   0.431809  -0.008477
 318  18  15.906975  -6.062437   3.362865  -0.002779   0.412182  -0.006742
 319  18  14.812859  -7.010573   4.264004  -0.003412   0.471065  -0.007243
 320  18  13.734668  -5.852417   5.090051  -0.003241   0.471065  -0.006879
 321  18  14.229123  -4.237640   4.585238  -0.004340   0.549575  -0.007898
 322  19  14.498083  -7.606323  -2.432918  -0.004356   0.510320  -0.008535
 323  19  15.728498  -6.938456  -1.017950  -0.002517   0.392554  -0.006413
 324  19  13.029091  -6.482602  -2.990048  -0.002284   0.353299  -0.006464
 325  19  12.904387  -8.347144  -2.123758  -0.002130   0.372926  -0.005711
 326  19  14.526186  -8.645273  -0.879152  -0.002246   0.372926  -0.006023
 327  19  15.291829  -6.670948  -2.056643  -0.003401   0.412182  -0.008251
 328  19  14.203031  -6.357600  -2.855348  -0.003966   0.451437  -0.008786
 329  19  13.061945  -7.476801  -2.794908  -0.003224   0.471065  -0.006845
 330  19  13.838950  -8.594982  -1.761765  -0.003360   0.451437  -0.007443
 331  19  15.234590  -7.942216  -1.225649  -0.003518   0.471065  -0.007468
 332   1  10.194537   4.718648   1.730422   0.000285   0.102355   0.002786
 333   2  10.420493   4.331214   1.802587   0.000234   0.102355   0.002288
 334   7   9.508233   4.339894   1.829277   0.000065   0.102355   0.000635
 335   1   9.704476   2.932396  -4.639470   0.000273   0.102355   0.002669
 336   2   9.933140   2.554837  -4.532090   0.000216   0.102355   0.002114
 337   7   9.026706   2.584750  -4.429683   0.000061   0.102355   0.000594
 338   1  14.575910   5.691516  -3.214272  -0.000173   0.012190  -0.014206
 339   2  14.830277   5.326364  -3.142470  -0.000217   0.012190  -0.017816
 340  13  15.046316   5.157292  -3.031525  -0.000169   0.012190  -0.013837
 341   1  14.700820   6.146887  -1.590334  -0.000152   0.012190  -0.012464
 342   2  14.956751   5.787436  -1.498200  -0.000106   0.012190  -0.008673
 343  13  15.161421   5.576917  -1.535063  -0.000162   0.012190  -0.013252
 344   2  10.732402   2.691267  -4.896350   0.000890   0.188386   0.004726
 345   2  12.404239   3.618939  -5.088043   0.001503   0.383554   0.003917
 346   2  14.126827   4.855344  -4.094935  -0.001130   0.383554  -0.002946
 347   1  11.053677   3.582694  -5.148429   0.002189   0.383554   0.005706
 348   1  13.039460   4.797480  -4.896971   0.000835   0.383554   0.002176
 349   1  14.233872   5.764367  -3.743338  -0.000728   0.188386  -0.003866
 350   2  14.753500   5.948441  -1.003803  -0.000732   0.188383  -0.003886
 351   2  13.774244   5.765822   0.639342   0.000471   0.383545   0.001227
 352   2  11.894163   4.936230   1.761457   0.001870   0.383545   0.004876
 353   1  14.095991   6.453143  -0.480030  -0.000892   0.383545  -0.002326
 354   1  12.582286   5.978098   1.241917   0.001979   0.383545   0.005160
 355   1  10.938436   5.152343   1.796989   0.001042   0.188383   0.005529
 356   1   9.365867   3.120211  -4.696505   0.000133   0.048319   0.002753
 357   3   8.913752   3.108996  -4.695933   0.000129   0.048319   0.002664
 358   7   8.686447   2.750159  -4.540457   0.000154   0.048319   0.003182
 359   1   9.860301   4.922090   1.729483   0.000145   0.048319   0.003000
 360   3   9.413487   4.930194   1.798950   0.000133   0.048319   0.002760
 361   7   9.180880   4.552034   1.885518   0.000155   0.048319   0.003199
 362   1   9.784990   8.489732   0.118453  -0.000394   0.041121  -0.009572
 363   3   9.338918   8.531859   0.177334  -0.000467   0.041121  -0.011355
 364   8   9.036433   8.813528   0.005363  -0.000496   0.041121  -0.012071
 365   1   9.378018   7.006527  -5.170805  -0.000382   0.041121  -0.009281
 366   3   8.926786   7.029845  -5.178996  -0.000475   0.041121  -0.011552
 367   8   8.640796   7.371633  -5.136575  -0.000526   0.041121  -0.012803
 368   3   9.051344   6.393119  -5.370134  -0.000627   0.193314  -0.003245
 369   3   9.022818   4.434025  -5.222817   0.000653   0.394273   0.001655
 370   1   9.682744   5.626162  -5.412908   0.000169   0.394273   0.000429
 371   1   9.666831   3.687370  -5.094482   0.000711   0.193314   0.003680
 372   3   9.545695   5.613718   1.775540   0.000610   0.193319   0.003155
 373   3   9.529475   7.435449   1.039492  -0.000551   0.394283  -0.001396
 374   1  10.189590   6.318358   1.496925   0.001473   0.394283   0.003735
 375   1  10.160759   8.068460   0.604152  -0.000184   0.193319  -0.000950
 376   1   9.761765   8.821614  -0.274335  -0.001194   0.076255  -0.015664
 377   8   9.026245   9.185957  -0.339315  -0.001034   0.076255  -0.013554
 378  16   9.142923   9.394767  -0.560355  -0.001285   0.076255  -0.016851
 379   1   9.397107   7.493386  -5.007997  -0.001159   0.076255  -0.015203
 380   8   8.664344   7.867771  -5.037189  -0.001050   0.076255  -0.013769
 381  16   8.802820   8.155978  -4.975264  -0.001625   0.076255  -0.021309
 382   8   8.581994   7.675449  -5.195673  -0.000125   0.056740  -0.002196
 383   1   9.623603   7.123077  -5.273644  -0.000100   0.062678  -0.001591
 384   8   8.958880   9.080966  -0.060686  -0.000141   0.057038  -0.002465
 385   1  10.053391   8.657767   0.077566  -0.000160   0.063007  -0.002546
 386   1  14.566802   6.420219  -2.110680  -0.000213   0.014850  -0.014340
 387  12  14.471283   6.679547  -2.219809  -0.000216   0.014850  -0.014567
 388  13  14.943847   5.798306  -2.016293  -0.000267   0.014850  -0.018003
 389   1  14.506216   6.199433  -2.897832  -0.000196   0.014850  -0.013183
 390  12  14.416906   6.481385  -2.926299  -0.000251   0.014850  -0.016914
 391  13  14.890504   5.603915  -2.709343  -0.000259   0.014850  -0.017423
 392   1  10.665582   8.171883  -4.621077  -0.000934   0.075657  -0.012340
 393  12  10.887745   8.340236  -4.509184  -0.000855   0.075657  -0.011307
 394  16   9.980021   8.725468  -4.496353  -0.001972   0.075657  -0.026070
 395   1  10.934057   9.150740  -1.131482  -0.000825   0.075657  -0.010904
 396  12  11.131221   9.227948  -1.344517  -0.000970   0.075657  -0.012826
 397  16  10.216254   9.586772  -1.425831  -0.002051   0.075657  -0.027103
 398  12  14.234280   6.897886  -3.326541  -0.000680   0.068811  -0.009885
 399  12  13.589815   6.985412  -4.245561  -0.001194   0.153684  -0.007768
 400  12  12.462365   7.473314  -4.828946  -0.001127   0.153684  -0.007331
 401  12  11.515260   8.074537  -4.733464  -0.000562   0.068811  -0.008169
 402   1  14.026454   6.498425  -3.717529  -0.001285   0.149889  -0.008570
 403   1  12.958764   6.797648  -4.768195  -0.000811   0.149889  -0.005413
 404   1  11.633578   7.533938  -4.955693  -0.000903   0.149889  -0.006022
 405  12  11.794287   9.091833  -1.106815  -0.000570   0.068813  -0.008279
 406  12  12.768560   8.589519  -0.849618  -0.001016   0.153691  -0.006612
 407  12  13.820371   7.825756  -1.249629  -0.001188   0.153691  -0.007731
 408  12  14.330874   7.249912  -2.071499  -0.000636   0.068813  -0.009249
 409   1  11.964372   8.739901  -0.656416  -0.000879   0.149894  -0.005866
 410   1  13.277831   7.960688  -0.621852  -0.000763   0.149894  -0.005089
 411   1  14.196700   7.118914  -1.505388  -0.001357   0.149894  -0.009051
 412  13  15.238857   5.147017  -2.866986  -0.000625   0.078446  -0.007969
 413   1  14.606139   6.019727  -3.075720  -0.000478   0.110784  -0.004316
 414  13  15.333385   5.468660  -1.777515  -0.000678   0.078533  -0.008630
 415   1  14.693961   6.360724  -1.807450  -0.000479   0.110908  -0.004319
 416  16   9.293859   8.750358  -4.818501  -0.005079   0.264749  -0.019186
 417   1  10.091094   7.707138  -5.040569  -0.002026   0.372604  -0.005436
 418  16   9.448433   9.722328  -0.907446  -0.004594   0.264598  -0.017361
 419   1  10.567237   9.066738  -0.604724  -0.002145   0.372392  -0.005761
 420   2  10.579264   3.686120   2.038592   0.000211   0.050217   0.004210
 421   4  10.358113   3.319936   2.195033   0.000297   0.050217   0.005907
 422   5   9.903065   3.318964   2.193605   0.000206   0.050217   0.004100
 423   2  10.082677   1.874451  -4.420246   0.000204   0.050217   0.004068
 424   4   9.856320   1.489271  -4.331526   0.000298   0.050217   0.005931
 425   5   9.406473   1.507275  -4.265303   0.000212   0.050217   0.004217
 426   2  12.698433   0.459328  -4.166807   0.000055   0.053320   0.001024
 427   4  12.491454   0.063170  -4.078991  -0.000051   0.053320  -0.000959
 428   6  12.748077  -0.335696  -3.944324  -0.000256   0.053320  -0.004801
 429   2  13.187303   2.240874   2.185578   0.000031   0.053320   0.000580
 430   4  12.985889   1.864998   2.345712  -0.000081   0.053320  -0.001521
 431   6  13.236473   1.444125   2.401909  -0.000292   0.053320  -0.005471
 432   4  10.515283   1.205768  -4.474213   0.001124   0.206670   0.005439
 433   4  11.917037   0.456638  -4.342810   0.000743   0.206670   0.003596
 434   2  11.527866   1.391718  -4.538162   0.001629   0.423574   0.003845
 435   4  12.439420   2.360754   2.446409   0.000721   0.206716   0.003490
 436   4  11.041502   3.125104   2.368681   0.001000   0.206716   0.004838
 437   2  12.044855   3.276784   2.182840   0.001576   0.423676   0.003721
 438   2  10.194935   3.917568   1.896001   0.000108   0.101493   0.001066
 439   5   9.520359   3.573037   2.104688   0.000235   0.101493   0.002318
 440   7   9.288455   3.947439   1.997826   0.000263   0.101493   0.002596
 441   2   9.713248   2.161935  -4.365068   0.000106   0.101493   0.001041
 442   5   9.030134   1.786285  -4.267361   0.000248   0.101493   0.002439
 443   7   8.801027   2.170884  -4.337858   0.000248   0.101493   0.002444
 444   5   9.160059   1.564107  -4.359555   0.000102   0.023002   0.004449
 445   2  10.132816   2.072143  -4.580612   0.000131   0.023002   0.005704
 446   5   9.679562   3.412260   2.285704   0.000100   0.022826   0.004385
 447   2  10.634954   3.949406   2.057847   0.000137   0.022826   0.005987
 448   2  13.809979   0.374813  -3.788866   0.000029   0.092492   0.000311
 449   6  13.883788  -0.435235  -3.639384   0.000079   0.092492   0.000858
 450  11  14.270728  -0.457707  -3.552623   0.000610   0.092492   0.006591
 451   2  14.235539   1.929032   1.753161   0.000033   0.092492   0.000357
 452   6  14.319547   1.156231   2.035458   0.000098   0.092492   0.001059
 453  11  14.690886   1.076783   1.919054   0.000844   0.092492   0.009120
 454   6  13.233468  -0.495555  -3.932231  -0.000248   0.237416  -0.001044
 455   2  13.328540   0.661314  -4.202613   0.000206   0.237416   0.000866
 456   6  13.878665   1.272392   2.334977  -0.000267   0.237106  -0.001128
 457   2  13.649137   2.416590   2.093022   0.000240   0.237106   0.001012
 458   7   8.707380   2.337210  -4.528071   0.000054   0.006315   0.008490
 459   2  10.003759   2.309560  -4.620063   0.000044   0.006315   0.006995
 460   7   9.216208   4.187719   2.086797   0.000056   0.006346   0.008826
 461   2  10.512572   4.168199   1.992526   0.000046   0.006346   0.007318
 462   2  15.047120   1.537392  -3.458984  -0.000208   0.083673  -0.002490
 463  11  15.417566   0.697337  -3.117720   0.001365   0.083673   0.016316
 464  13  15.286953   1.644430  -3.315468  -0.000331   0.083673  -0.003960
 465   2  15.366831   2.703369   0.697596  -0.000203   0.083673  -0.002421
 466  11  15.718256   1.793944   0.791561   0.001164   0.083673   0.013912
 467  13  15.579434   2.711099   0.487086  -0.000337   0.083673  -0.004030
 468  11  14.940179  -0.194391  -3.495440   0.004347   0.429168   0.010128
 469   2  14.555419   1.143528  -3.832224   0.000516   0.478623   0.001079
 470  11  15.543198   1.318548   1.461127   0.004680   0.429425   0.010897
 471   2  14.745571   2.508242   1.460159   0.000478   0.478910   0.000998
 472  13  15.288987   2.333080  -3.632261  -0.000550   0.076939  -0.007146
 473  13  15.272388   3.585197  -3.713429  -0.001441   0.177220  -0.008131
 474  13  15.303785   4.729595  -3.199591  -0.000653   0.076939  -0.008484
 475   2  14.936608   2.766983  -3.924620  -0.001169   0.162801  -0.007178
 476   2  14.946874   4.429560  -3.624457  -0.001454   0.162801  -0.008930
 477  13  15.456928   5.287922  -1.208592  -0.000634   0.076929  -0.008248
 478  13  15.544269   4.576565  -0.178713  -0.001427   0.177192  -0.008051
 479  13  15.598981   3.463574   0.397968  -0.000565   0.076929  -0.007348
 480   2  15.176105   5.265350  -0.644239  -0.001402   0.162786  -0.008610
 481   2  15.274654   3.999711   0.470309  -0.001178   0.162786  -0.007238
 482   3   6.168591   6.633399   1.122771   0.000088   0.046167   0.001898
 483   7   5.962927   6.241035   1.213693   0.000026   0.046167   0.000561
 484   8   5.972850   6.981974   0.920756   0.000441   0.046167   0.009553
 485   3   5.732516   5.043947  -4.545520   0.000054   0.046167   0.001166
 486   7   5.531807   4.669642  -4.390196   0.000007   0.046167   0.000144
 487   8   5.553705   5.454227  -4.527482   0.000353   0.046167   0.007652
 488   7   5.820711   4.041700  -4.589508   0.000273   0.179224   0.001524
 489   7   7.372021   3.078384  -4.738275   0.001337   0.363674   0.003677
 490   3   6.720250   4.202698  -4.865616   0.000085   0.363674   0.000233
 491   3   8.297601   3.270709  -4.871083   0.000487   0.179224   0.002717
 492   7   8.505510   4.646079   2.125693   0.000852   0.179228   0.004756
 493   7   6.907487   5.502879   1.862939   0.000846   0.363683   0.002327
 494   3   8.212749   5.524735   1.894170   0.000695   0.363683   0.001911
 495   3   6.618905   6.333181   1.490559   0.000021   0.179228   0.000117
 496   8   7.956079   7.296829  -5.324566  -0.000135   0.174577  -0.000773
 497   8   6.439769   6.321151  -5.113313   0.003151   0.369194   0.008536
 498   3   7.731072   6.380144  -5.296099  -0.000407   0.364983  -0.001116
 499   3   6.171173   5.414563  -4.911805   0.000531   0.186279   0.002849
 500   8   6.311861   7.616511   0.934723   0.001610   0.174581   0.009220
 501   8   7.822436   8.550661   0.558650   0.001160   0.369203   0.003142
 502   3   7.238803   7.503310   1.075208   0.000776   0.364992   0.002126
 503   3   8.779415   8.417744   0.524045  -0.000654   0.186283  -0.003513
 504   4   9.832983  -1.497489  -3.373581  -0.000099   0.049847  -0.001986
 505   5   9.384695  -1.454241  -3.309693  -0.000022   0.049847  -0.000444
 506   6  10.113691  -1.880884  -3.242777  -0.000372   0.049847  -0.007469
 507   4  10.317959   0.271328   2.934556  -0.000126   0.049847  -0.002532
 508   5   9.863781   0.293091   2.921822  -0.000016   0.049847  -0.000314
 509   6  10.592305  -0.135274   2.982597  -0.000359   0.049847  -0.007207
 510   5   9.066107   0.768869  -4.239418   0.001008   0.218241   0.004620
 511   5   9.035623  -0.830271  -3.721459   0.000653   0.218241   0.002993
 512   4   9.704888  -0.039998  -3.970649   0.002132   0.449968   0.004739
 513   5   9.552091   1.053510   2.996207   0.000550   0.218289   0.002521
 514   5   9.592101   2.687712   2.601974   0.000842   0.218289   0.003858
 515   4  10.217970   1.831590   2.702888   0.002058   0.450078   0.004574
 516   6  10.873729  -1.885901  -3.561416  -0.001525   0.240481  -0.006343
 517   6  12.305766  -1.036012  -3.947918  -0.001241   0.240481  -0.005158
 518   4  11.214944  -0.865099  -3.833116  -0.001836   0.494564  -0.003712
 519   6  12.827268   0.864781   2.829916  -0.001288   0.240534  -0.005355
 520   6  11.389541  -0.004948   3.146376  -0.001468   0.240534  -0.006105
 521   4  11.725115   0.994834   2.799368  -0.001811   0.494684  -0.003660
 522   5   9.649721  -0.546444   2.843066  -0.000217   0.107465  -0.002015
 523   6  10.368507  -0.975216   2.978987  -0.000376   0.107465  -0.003503
 524   9  10.168031  -1.368865   2.994900   0.000363   0.107465   0.003382
 525   5   9.217702  -2.122536  -2.779075  -0.000191   0.107465  -0.001778
 526   6   9.926433  -2.587990  -2.774006  -0.000398   0.107465  -0.003704
 527   9   9.741524  -2.924850  -2.555516   0.000546   0.107465   0.005082
 528   6  10.053431  -2.341636  -3.115732  -0.000355   0.146781  -0.002420
 529   5   9.062259  -1.659935  -3.268459   0.000143   0.146781   0.000977
 530   6  10.585393  -0.502212   3.130495  -0.000339   0.146917  -0.002306
 531   5   9.494563   0.017988   3.030673   0.000136   0.146917   0.000924
 532   5   4.743085  -0.096624  -0.818162  -0.000184   0.011756  -0.015639
 533   7   4.553230   0.301792  -0.904612  -0.000134   0.011756  -0.011389
 534  14   4.810330  -0.346607  -0.675580  -0.000193   0.011756  -0.016442
 535   5   4.865672   0.350150   0.775141  -0.000171   0.011756  -0.014578
 536   7   4.674305   0.743053   0.669031  -0.000151   0.011756  -0.012845
 537  14   4.921899   0.060011   0.774515  -0.000143   0.011756  -0.012154
 538   7   7.964317   1.893344  -4.459891   0.000876   0.188872   0.004637
 539   7   6.322532   1.050019  -3.895192   0.002012   0.384708   0.005231
 540   7   4.817359   0.563647  -2.155455  -0.000708   0.384708  -0.001842
 541   5   7.651236   1.010623  -4.164283   0.001966   0.384708   0.005111
 542   5   5.775856   0.162770  -3.027234   0.000523   0.384708   0.001360
 543   5   4.805668  -0.024789  -1.369194  -0.000832   0.188872  -0.004403
 544   7   4.679611   1.237911   1.066593  -0.000561   0.188871  -0.002968
 545   7   5.866981   2.217035   2.231481   0.000847   0.384705   0.002202
 546   7   7.849470   3.455297   2.486758   0.002394   0.384705   0.006224
 547   5   5.425881   1.059337   1.679606  -0.001072   0.384705  -0.002786
 548   5   7.142095   2.314906   2.683040   0.001698   0.384705   0.004415
 549   5   8.812517   3.262634   2.490691   0.000828   0.188871   0.004382
 550   5   7.904782  -1.344019   2.398892  -0.000277   0.084025  -0.003298
 551   9   8.498529  -2.125864   2.437714   0.001138   0.084025   0.013542
 552  14   7.721476  -1.546898   2.278047  -0.000406   0.084025  -0.004834
 553   5   7.586007  -2.505673  -1.743916  -0.000278   0.084025  -0.003309
 554   9   8.198872  -3.217855  -1.456653   0.000934   0.084025   0.011113
 555  14   7.429923  -2.609357  -1.510996  -0.000410   0.084025  -0.004885
 556   9   8.894516  -3.459180  -1.989898   0.005052   0.501243   0.010079
 557   5   8.327747  -2.260504  -2.566728   0.000206   0.559068   0.000368
 558   9   9.531613  -1.899822   2.995964   0.004488   0.501028   0.008957
 559   5   8.491548  -0.918536   2.781389   0.000182   0.558828   0.000325
 560  14   7.072696  -1.148254   2.342960  -0.000581   0.077757  -0.007469
 561  14   6.000678  -0.567887   1.992351  -0.001481   0.179772  -0.008238
 562  14   5.117982  -0.280187   1.128029  -0.000621   0.077757  -0.007991
 563   5   6.823133  -0.567443   2.396656  -0.001222   0.163968  -0.007451
 564   5   5.467235   0.034697   1.553912  -0.001456   0.163968  -0.008877
 565  14   4.967648  -0.828077  -0.825881  -0.000672   0.077756  -0.008637
 566  14   5.729511  -1.556107  -1.531911  -0.001464   0.179770  -0.008146
 567  14   6.763157  -2.276267  -1.679863  -0.000589   0.077756  -0.007579
 568   5   5.240131  -0.792964  -1.397739  -0.001463   0.163967  -0.008923
 569   5   6.485596  -1.797509  -1.990108  -0.001185   0.163967  -0.007230
 570   6  11.419445  -4.011625  -2.816093  -0.000173   0.051055  -0.003387
 571   9  11.187506  -4.344009  -2.647007   0.000130   0.051055   0.002537
 572  10  11.393798  -4.776581  -2.595863  -0.000040   0.051055  -0.000775
 573   6  11.907233  -2.229711   3.538944  -0.000152   0.051055  -0.002982
 574   9  11.667072  -2.592130   3.600914   0.000127   0.051055   0.002480
 575  10  11.881052  -2.996617   3.752218  -0.000056   0.051055  -0.001106
 576   9  10.382810  -3.664095  -2.646785   0.001060   0.207425   0.005109
 577   6  10.917470  -3.357774  -2.961496  -0.000771   0.221330  -0.003481
 578   9  11.096328  -2.120347   3.442575   0.000972   0.207331   0.004687
 579   6  11.169480  -1.443303   3.320415  -0.000521   0.221229  -0.002353
 580   6  12.932709  -2.552050   3.600919  -0.000542   0.055179  -0.009819
 581  10  12.912406  -3.289644   3.897265  -0.000403   0.055179  -0.007309
 582  18  13.151899  -3.447978   3.988926  -0.000533   0.055179  -0.009668
 583   6  12.438118  -4.359990  -2.846879  -0.000563   0.055177  -0.010204
 584  10  12.405370  -5.143072  -2.712767  -0.000434   0.055177  -0.007861
 585  19  12.635568  -5.335355  -2.742146  -0.000429   0.055177  -0.007781
 586  10  11.794286  -5.021410  -2.744576  -0.000424   0.218234  -0.001943
 587   6  11.995509  -3.941170  -3.075868  -0.000966   0.218234  -0.004426
 588  10  12.473083  -3.150156   3.949412  -0.000508   0.218146  -0.002331
 589   6  12.345551  -2.052778   3.638546  -0.000847   0.218146  -0.003885
 590   6  14.396764  -2.080472   3.077457  -0.000092   0.116899  -0.000788
 591  11  14.772127  -2.082605   2.942895   0.000881   0.116899   0.007535
 592  18  14.467852  -3.036647   3.365399  -0.000397   0.116899  -0.003396
 593   6  13.941165  -3.744268  -2.856127  -0.000033   0.116900  -0.000286
 594  11  14.331586  -3.691415  -2.794594   0.000843   0.116900   0.007210
 595  19  14.008723  -4.713519  -2.614805  -0.000454   0.116900  -0.003886
 596  11  14.499627  -2.828811  -3.242916   0.001500   0.167566   0.008952
 597  11  14.500922  -1.347443  -3.577628   0.001315   0.167566   0.007846
 598   6  13.945823  -2.094447  -3.440391   0.000760   0.348708   0.002179
 599  11  14.957451   0.319833   2.367716   0.001555   0.167581   0.009282
 600  11  14.967598  -1.119879   2.851468   0.001551   0.167581   0.009257
 601   6  14.418617  -0.367838   2.716787   0.000719   0.348741   0.002063
 602  18  13.977185  -3.461113   3.951649  -0.002060   0.336767  -0.006118
 603   6  13.513911  -2.101311   3.544652  -0.001791   0.477811  -0.003747
 604  19  13.207208  -5.400804  -2.838553  -0.002154   0.336641  -0.006400
 605   6  13.235638  -3.930729  -3.098145  -0.001496   0.477633  -0.003132
 606   7   4.126617   4.727793  -3.107743  -0.000167   0.059820  -0.002800
 607   8   4.247035   5.504878  -3.230518   0.000532   0.059820   0.008900
 608  15   3.928198   4.651661  -2.898580  -0.000324   0.059820  -0.005424
 609   7   4.388797   5.683488   0.300449  -0.000187   0.059820  -0.003134
 610   8   4.494406   6.406592  -0.014833   0.000383   0.059820   0.006408
 611  15   4.165900   5.518129   0.191413  -0.000322   0.059820  -0.005389
 612   8   4.936954   5.733185  -4.175635   0.003433   0.419926   0.008174
 613   7   4.630156   4.667370  -3.745992   0.000159   0.463040   0.000343
 614   8   5.026004   7.003720   0.380873   0.003892   0.419935   0.009269
 615   7   5.245668   5.999054   0.978432   0.000171   0.463050   0.000370
 616   7   4.317389   0.864493   0.019964  -0.000112   0.007314  -0.015340
 617  14   4.665504   0.232195   0.145227  -0.000170   0.007314  -0.023244
 618  15   4.125586   1.079648  -0.047270  -0.000142   0.007314  -0.019454
 619   7   4.287470   0.755434  -0.368968  -0.000129   0.007314  -0.017575
 620  14   4.639168   0.136197  -0.197126  -0.000170   0.007314  -0.023305
 621  15   4.098739   0.981788  -0.396263  -0.000136   0.007314  -0.018533
 622  14   4.855515  -0.179395   0.600898  -0.000938   0.113830  -0.008241
 623   7   4.392205   0.779154   0.326058  -0.000675   0.160730  -0.004199
 624  14   4.765593  -0.428379  -0.282039  -0.000993   0.113817  -0.008725
 625   7   4.333487   0.493440  -0.697421  -0.000590   0.160712  -0.003673
 626  15   3.668852   3.993413  -2.905005  -0.000430   0.074189  -0.005792
 627  15   3.632671   2.785997  -2.817152  -0.001091   0.169003  -0.006458
 628  15   3.653366   1.642112  -1.915326  -0.001226   0.169003  -0.007255
 629  15   3.718014   1.276019  -0.762644  -0.000555   0.074189  -0.007483
 630   7   3.960475   3.523466  -3.182713  -0.000828   0.158596  -0.005218
 631   7   3.939276   1.964644  -2.689393  -0.000742   0.158596  -0.004677
 632   7   4.003919   1.122101  -1.289506  -0.001266   0.158596  -0.007984
 633  15   3.789286   1.535815   0.163853  -0.000617   0.074189  -0.008319
 634  15   3.874300   2.447449   0.956688  -0.001262   0.169003  -0.007469
 635  15   3.936261   3.892632   1.129343  -0.000937   0.169003  -0.005546
 636  15   3.936480   4.968966   0.574009  -0.000403   0.074189  -0.005437
 637   7   4.152934   1.665283   0.647606  -0.001336   0.158597  -0.008422
 638   7   4.254068   3.112112   1.402730  -0.000734   0.158597  -0.004630
 639   7   4.283009   4.699162   1.010060  -0.000806   0.158597  -0.005084
 640  15   3.772642   5.482751  -0.069633  -0.001059   0.256601  -0.004128
 641  15   3.385135   5.255621  -1.350538  -0.003009   0.517602  -0.005814
 642  15   3.577670   4.772044  -2.604154  -0.000930   0.256601  -0.003625
 643   8   3.955718   6.726482  -0.868684   0.005585   0.629724   0.008870
 644   8   3.822627   6.241341  -2.598793   0.005880   0.629724   0.009338
 645  16   8.295322   8.629576  -5.131142  -0.001162   0.084082  -0.013823
 646  16   7.299832   9.361631  -5.008964  -0.002726   0.182574  -0.014932
 647  16   6.450587  10.243646  -4.133953  -0.003323   0.182574  -0.018198
 648  16   6.353361  10.779813  -2.731141  -0.003289   0.182574  -0.018015
 649  16   7.049525  10.741982  -1.397448  -0.003012   0.182574  -0.016496
 650  16   8.242848  10.146252  -0.700385  -0.002753   0.182574  -0.015079
 651   8   7.647185   8.533218  -5.189678  -0.001814   0.180037  -0.010076
 652   8   6.451748   9.525764  -4.703359  -0.001911   0.180037  -0.010613
 653   8   5.910163  10.337269  -3.399953  -0.002598   0.180037  -0.014433
 654   8   6.252884  10.622424  -1.834083  -0.002326   0.180037  -0.012920
 655   8   7.334078  10.259891  -0.672053  -0.001829   0.180037  -0.010157
 656   8   8.435361   9.620281  -0.297634  -0.000939   0.096272  -0.009752
 657   9   8.674468  -4.962647   2.075753   0.000145   0.017666   0.008210
 658  10   8.763283  -5.407387   2.236518  -0.000073   0.017666  -0.004125
 659  17   8.726937  -5.704799   2.229890  -0.000129   0.017666  -0.007282
 660   9   8.537412  -5.463432   0.289683   0.000138   0.017666   0.007830
 661  10   8.620159  -5.930345   0.371367  -0.000084   0.017666  -0.004783
 662  17   8.596946  -6.179770   0.535889  -0.000135   0.017666  -0.007627
 663  10   8.727797  -5.844022  -0.129466   0.000027   0.177230   0.000151
 664  10   9.655579  -5.722390  -1.518776   0.000391   0.348460   0.001122
 665  10  10.970038  -5.303111  -2.468594  -0.000045   0.177230  -0.000251
 666   9   8.860315  -5.155997  -0.767240   0.002471   0.334107   0.007395
 667   9  10.204503  -4.831729  -2.169510   0.002284   0.334107   0.006835
 668  10  11.464766  -3.495804   3.977028  -0.000067   0.177236  -0.000377
 669  10  10.046747  -4.293288   3.578071   0.000377   0.348472   0.001082
 670  10   8.937210  -5.078875   2.599444   0.000021   0.177236   0.000116
 671   9  10.646490  -3.217045   3.589162   0.002151   0.334119   0.006437
 672   9   9.131261  -4.166071   2.763322   0.002519   0.334119   0.007538
 673  14   7.166368  -2.862427  -1.224095  -0.000666   0.230725  -0.002887
 674  14   6.874276  -3.063869  -0.058006  -0.002385   0.464246  -0.005138
 675  14   6.983807  -2.664725   1.365462  -0.002381   0.464246  -0.005128
 676  14   7.430158  -1.901142   2.204135  -0.000595   0.230725  -0.002579
 677   9   8.050365  -3.955497  -0.730977   0.006363   0.567809   0.011206
 678   9   7.852300  -3.948284   0.886639   0.006513   0.567809   0.011470
 679   9   8.278023  -3.125883   2.227676   0.006624   0.567809   0.011666
 680  17   8.545498  -5.931894   1.937072  -0.001039   0.205635  -0.005053
 681  17   8.467926  -6.215333   0.926175  -0.001017   0.205635  -0.004944
 682   9   8.416258  -5.023665   1.144176   0.002370   0.494412   0.004793
 683  10  16.038967  -4.956759   1.639668   0.000219   0.077044   0.002838
 684  11  16.302522  -4.108951   1.329031   0.001438   0.077044   0.018666
 685  18  16.004758  -4.955561   1.940435  -0.000201   0.077044  -0.002609
 686  10  15.883459  -5.525181  -0.387322   0.000170   0.077045   0.002210
 687  11  16.154467  -4.650137  -0.600837   0.001711   0.077045   0.022203
 688  19  15.807022  -5.678326  -0.636991  -0.000192   0.077045  -0.002488
 689  11  16.654188  -3.982417   0.412841   0.009400   0.542452   0.017329
 690  10  16.127027  -5.276947   0.436103   0.002351   0.603318   0.003898
 691  17   8.617283  -6.682153   0.436042  -0.000428   0.066587  -0.006432
 692  17   9.099575  -7.480482  -0.118503  -0.001024   0.147279  -0.006955
 693  17   9.923753  -8.502440  -0.151853  -0.001004   0.147279  -0.006817
 694  17  10.737736  -9.223878   0.584175  -0.001149   0.147279  -0.007799
 695  17  11.219496  -9.359381   1.798393  -0.001220   0.147279  -0.008283
 696  17  11.178440  -8.855341   3.010431  -0.001204   0.147279  -0.008178
 697  17  10.630808  -7.911166   3.740782  -0.001066   0.147279  -0.007235
 698  17   9.793257  -6.900392   3.700504  -0.000970   0.147279  -0.006587
 699  17   8.997138  -6.222902   2.905532  -0.001134   0.147279  -0.007698
 700  10   8.901241  -6.685550  -0.078363  -0.000950   0.146451  -0.006487
 701  10   9.689824  -7.833742  -0.565356  -0.000893   0.146451  -0.006099
 702  10  10.659308  -8.865506  -0.149502  -0.000884   0.146451  -0.006034
 703  10  11.426146  -9.372654   1.004677  -0.001159   0.146451  -0.007913
 704  10  11.686960  -9.154549   2.440566  -0.001230   0.146451  -0.008399
 705  10  11.338567  -8.297477   3.590096  -0.001001   0.146451  -0.006837
 706  10  10.518798  -7.140514   3.998490  -0.000828   0.146451  -0.005655
 707  10   9.551972  -6.141378   3.504178  -0.000930   0.146451  -0.006349
 708  10   8.898462  -5.673347   2.616280  -0.000430   0.081351  -0.005281
 709  18  13.114078  -3.972312   4.413274  -0.000549   0.066777  -0.008229
 710  18  12.741397  -4.921128   4.788249  -0.000994   0.147676  -0.006731
 711  18  12.819667  -6.232370   4.839403  -0.000914   0.147676  -0.006192
 712  18  13.498403  -7.266320   4.394022  -0.001205   0.147676  -0.008163
 713  18  14.508955  -7.613729   3.628391  -0.001338   0.147676  -0.009061
 714  18  15.451336  -7.137089   2.845554  -0.001249   0.147676  -0.008459
 715  18  15.952541  -6.025060   2.355368  -0.001008   0.147676  -0.006825
 716  10  12.571314  -4.198336   4.437333  -0.001055   0.146900  -0.007185
 717  10  12.290251  -5.607343   4.779764  -0.000854   0.146900  -0.005815
 718  10  12.738267  -6.995291   4.546449  -0.000914   0.146900  -0.006220
 719  10  13.738033  -7.812817   3.829739  -0.001248   0.146900  -0.008494
 720  10  14.893832  -7.736335   2.913314  -0.001282   0.146900  -0.008726
 721  10  15.748186  -6.796117   2.159905  -0.000958   0.146900  -0.006519
 722  10  16.036883  -5.678372   1.836514  -0.000313   0.081583  -0.003842
 723  19  15.809460  -6.413608  -0.568151  -0.000399   0.066777  -0.005976
 724  19  15.560465  -7.421081  -0.247591  -0.001059   0.147676  -0.007173
 725  19  14.746631  -8.453129  -0.273342  -0.001235   0.147676  -0.008365
 726  19  13.616403  -8.892265  -0.781137  -0.001253   0.147676  -0.008488
 727  19  12.617144  -8.564674  -1.569983  -0.001056   0.147676  -0.007151
 728  19  12.144379  -7.600019  -2.327643  -0.000971   0.147676  -0.006572
 729  19  12.385234  -6.380129  -2.754220  -0.001147   0.147676  -0.007767
 730  10  15.795866  -6.663378  -0.035528  -0.000738   0.146899  -0.005024
 731  10  15.210462  -7.994105   0.225312  -0.001092   0.146899  -0.007432
 732  10  14.059913  -8.864793  -0.090455  -0.001291   0.146899  -0.008789
 733  10  12.799624  -8.930809  -0.857843  -0.001051   0.146899  -0.007158
 734  10  11.928439  -8.166022  -1.773108  -0.000846   0.146899  -0.005760
 735  10  11.791188  -6.873148  -2.473972  -0.000932   0.146899  -0.006347
 736  10  12.203564  -5.777591  -2.732809  -0.000559   0.081583  -0.006852
 737  13  15.981911   2.729205   0.254034  -0.000468   0.230485  -0.002029
 738  13  16.532356   2.500604  -0.814535  -0.001882   0.463846  -0.004057
 739  13  16.422468   2.099847  -2.243186  -0.001951   0.463846  -0.004207
 740  13  15.717373   1.764446  -3.185224  -0.000395   0.230485  -0.001716
 741  11  16.559191   1.366400   0.336395   0.008056   0.566831   0.014212
 742  11  16.975236   0.995206  -1.201076   0.008445   0.566831   0.014899
 743  11  16.330896   0.533813  -2.631683   0.007982   0.566831   0.014083
 744  18  16.109609  -4.821884   2.352981  -0.000150   0.234752  -0.000641
 745  18  15.667487  -4.131983   3.151975  -0.001231   0.471170  -0.002614
 746  18  14.858000  -3.528318   3.690629  -0.000646   0.234752  -0.002750
 747  11  16.514233  -3.321511   1.870840   0.007471   0.585045   0.012770
 748  11  15.655575  -2.434068   2.788525   0.005568   0.585045   0.009517
 749  19  14.368154  -5.317564  -2.690329  -0.000817   0.234782  -0.003481
 750  19  15.269191  -5.587292  -2.038000  -0.001304   0.471229  -0.002767
 751  19  15.847047  -5.781528  -1.069232  -0.000110   0.234782  -0.000468
 752  11  15.241335  -3.947166  -2.607589   0.005602   0.585116   0.009574
 753  11  16.255919  -4.265465  -1.495448   0.007849   0.585116   0.013414
 754  13  15.285266   5.516684  -2.415877  -0.001020   0.246460  -0.004140
 755  12  14.567070   6.785203  -2.563488  -0.000943   0.246460  -0.003825
 756  16  10.041242  10.103592  -1.712238  -0.003842   0.243370  -0.015787
 757  16  10.147641  10.201349  -2.879484  -0.009045   0.486904  -0.018577
 758  16   9.940305   9.605747  -4.165219  -0.008626   0.486904  -0.017716
 759  12  11.371470   9.580573  -2.087973  -0.004665   0.486904  -0.009580
 760  12  11.370435   9.416456  -3.510615  -0.005113   0.486904  -0.010500
 761  12  11.103492   8.733355  -4.430101  -0.001691   0.243370  -0.006947
 762  15   3.882186   1.023029  -0.239684  -0.000233   0.121579  -0.001918
 763  14   4.606573  -0.196100   0.121973  -0.000324   0.121579  -0.002667
 =====================================================

              5564591  WORDS OF DYNAMIC MEMORY USED
 EXECUTION OF GAMESS TERMINATED NORMALLY Thu Sep  9 10:53:39 2021
 DDI: 263640 bytes (0.3 MB / 0 MWords) used by master data server.

 ----------------------------------------
 CPU timing information for all processes
 ========================================
 0: 1771.808 + 0.827 = 1772.636
 ----------------------------------------
 ddikick.x: exited gracefully