

 Distributed Data Interface kickoff program.
 Initiating 1 compute processes on 1 nodes to run the following command:
 /home/servidor/src/gamess/gamess.00.x TRIMETHYLAMINE 

          ******************************************************
          *      GAMESS VERSION = 30 JUN 2019 R1 Patch 1       *
          *             FROM IOWA STATE UNIVERSITY             *
          * M.W.SCHMIDT, K.K.BALDRIDGE, J.A.BOATZ, S.T.ELBERT, *
          *   M.S.GORDON, J.H.JENSEN, S.KOSEKI, N.MATSUNAGA,   *
          *          K.A.NGUYEN, S.J.SU, T.L.WINDUS,           *
          *       TOGETHER WITH M.DUPUIS, J.A.MONTGOMERY       *
          *         J.COMPUT.CHEM.  14, 1347-1363(1993)        *
          **************** 64 BIT LINUX VERSION ****************

  EXECUTION OF GAMESS BEGUN Mon Feb  3 11:23:33 2020

            ECHO OF THE FIRST FEW INPUT CARDS -
 INPUT CARD>! SELECT RESTRICTED HARTREE-FOCK AS DEFAULT                                     
 INPUT CARD> $contrl scftyp=rhf $end                                                        
 INPUT CARD>                                                                                
 INPUT CARD>! THEORY: HF OR DFT                                                             
 INPUT CARD> $contrl mplevl=0 $end                                                          
 INPUT CARD>                                                                                
 INPUT CARD> $system timlim=10000 mwords=20 $end                                            
 INPUT CARD> $SCF DIRSCF=.TRUE. $end                                                        
 INPUT CARD>                                                                                
 INPUT CARD>! BASIS SETS                                                                    
 INPUT CARD>! KTZVP                                                                         
 INPUT CARD> $contrl ISPHER=1 $END                                                          
 INPUT CARD> $BASIS GBASIS=KTZVP $END                                                       
 INPUT CARD>                                                                                
 INPUT CARD>! One of the following                                                          
 INPUT CARD> $guess guess=HUCKEL $end                                                       
 INPUT CARD>                                                                                
 INPUT CARD> $statpt projct=.FALSE. $end                                                    
 INPUT CARD> $STATPT IFREEZ(1)=1,2,3 $END                                                   
 INPUT CARD>                                                                                
 INPUT CARD>! Optimize the geometry with COSMO effects                                      
 INPUT CARD> $statpt opttol=0.0005 nstep=50 $end                                            
 INPUT CARD> $contrl runtyp=OPTIMIZE maxit=200 $end                                         
 INPUT CARD>                                                                                
 INPUT CARD>! Run COSMO on perfect conductor                                                
 INPUT CARD> $COSGMS PRFCND=.TRUE. $end                                                     
 INPUT CARD>                                                                                
 INPUT CARD>! Specifying RSOLV                                                              
 INPUT CARD> $COSGMS COSRAD = 1.4 $end                                                      
 INPUT CARD>                                                                                
 INPUT CARD>! available memory                                                              
 INPUT CARD> $SYSTEM MWORDS=50 $END                                                         
 INPUT CARD>                                                                                
 INPUT CARD>! Internal Coordinates                                                          
 INPUT CARD> $CONTRL nzvar=1 $END                                                           
 INPUT CARD> $zmat dlc=.t. auto=.t. $END                                                    
 INPUT CARD>                                                                                
 INPUT CARD> $DATA                                                                          
 INPUT CARD>TRIMETHYLAMINE.mol	75-50-3                                                      
 INPUT CARD>C1                                                                              
 INPUT CARD>C      6.0      1.0549000000    1.0787000000    2.2193000000                    
 INPUT CARD>N      7.0      1.9530000000    1.5557000000    1.1790000000                    
 INPUT CARD>C      6.0      3.3469000000    1.3519000000    1.5422000000                    
 INPUT CARD>C      6.0      1.6871000000    2.9451000000    0.8398000000                    
 INPUT CARD>H      1.0      0.0156000000    1.1904000000    1.8905000000                    
 INPUT CARD>H      1.0      1.2392000000    0.0153000000    2.4084000000                    
 INPUT CARD>H      1.0      1.1691000000    1.6212000000    3.1802000000                    
 INPUT CARD>H      1.0      3.9943000000    1.6641000000    0.7151000000                    
 INPUT CARD>H      1.0      3.6518000000    1.9173000000    2.4466000000                    
 INPUT CARD>H      1.0      3.5279000000    0.2882000000    1.7327000000                    
   50000000 WORDS OF MEMORY AVAILABLE

     ---------------------------
     ATOM         COORDINATES           RADIUS 
     1    1.9935    2.0384    4.1939    2.0000
     2    3.6906    2.9398    2.2280    1.8300
     3    6.3247    2.5547    2.9143    2.0000
     4    3.1882    5.5654    1.5870    2.0000
     5    0.0295    2.2495    3.5725    1.3000
     6    2.3417    0.0289    4.5512    1.3000
     7    2.2093    3.0636    6.0097    1.3000
     8    7.5481    3.1447    1.3513    1.3000
     9    6.9009    3.6232    4.6234    1.3000
    10    6.6668    0.5446    3.2743    1.3000
    11    4.4159    6.1516    0.0259    1.3000
    12    1.2225    5.7705    0.9692    1.3000
    13    3.5032    6.8837    3.1861    1.3000

          ----------------
          
       ***** EQUILIBRIUM GEOMETRY LOCATED *****
            (SUBJECT TO   3 CONSTRAINT(S))
 COORDINATES OF ALL ATOMS ARE (ANGS)
   ATOM   CHARGE       X              Y              Z
 ------------------------------------------------------------
 C           6.0   1.0540942946   1.0772799172   2.2178034573
 N           7.0   1.9547513547   1.5610052260   1.1870157277
 C           6.0   3.3470566246   1.3505457394   1.5404488311
 C           6.0   1.6865811240   2.9443907684   0.8377604374
 H           1.0   0.0264316264   1.1856985149   1.8902740394
 H           1.0   1.2357735374   0.0245825358   2.4020947467
 H           1.0   1.1634508284   1.6095249036   3.1669432820
 H           1.0   3.9862202098   1.6573761877   0.7204166153
 H           1.0   3.6519040066   1.9063009466   2.4316902298
 H           1.0   3.5254310729   0.2974996010   1.7259032792
 H           1.0   2.3281543696   3.2491905422   0.0188667562
 H           1.0   0.6579707485   3.0498535767   0.5122150225
 H           1.0   1.8496363318   3.6358388735   1.6692773988


                     --------------------
                     INTERNAL COORDINATES
                     --------------------

                 - - ATOMS - -         COORDINATE      COORDINATE
 NO.   TYPE    I  J  K  L  M  N        (BOHR,RAD)       (ANG,DEG)
 ----------------------------------------------------------------
   1 STRETCH   1  2                     2.7434869       1.4517908
   2 STRETCH   1  5                     2.0485193       1.0840298
   3 STRETCH   1  6                     2.0485383       1.0840399
   4 STRETCH   1  7                     2.0667331       1.0936681
   5 STRETCH   2  4                     2.7434566       1.4517748
   6 STRETCH   2  3                     2.7435035       1.4517996
   7 STRETCH   3  8                     2.0485256       1.0840331
   8 STRETCH   3 10                     2.0485161       1.0840281
   9 STRETCH   3  9                     2.0667305       1.0936668
  10 STRETCH   4 13                     2.0667313       1.0936672
  11 STRETCH   4 12                     2.0485375       1.0840394
  12 STRETCH   4 11                     2.0485065       1.0840231
  13 BEND      1  2  4                  1.9538012     111.9445655
  14 BEND      1  2  3                  1.9539034     111.9504204
  15 BEND      2  3 10                  1.9180050     109.8935921
  16 BEND      2  1  5                  1.9180016     109.8933957
  17 BEND      2  1  7                  1.9736008     113.0789966
  18 BEND      2  3  9                  1.9736414     113.0813230
  19 BEND      2  1  6                  1.9180235     109.8946505
  20 BEND      2  3  8                  1.9179952     109.8930293
  21 BEND      2  4 13                  1.9736007     113.0789922
  22 BEND      2  4 12                  1.9179506     109.8904733
  23 BEND      2  4 11                  1.9180715     109.8974012
  24 BEND      3  2  4                  1.9539536     111.9532937
  25 BEND      5  1  7                  1.8842343     107.9586749
  26 BEND      5  1  6                  1.8832222     107.9006821
  27 BEND      6  1  7                  1.8841953     107.9564357
  28 BEND      8  3  9                  1.8841709     107.9550398
  29 BEND      8  3 10                  1.8832041     107.8996485
  30 BEND      9  3 10                  1.8842589     107.9600799
  31 BEND     11  4 12                  1.8832234     107.9007537
  32 BEND     11  4 13                  1.8842467     107.9593816
  33 BEND     12  4 13                  1.8841849     107.9558420
  34 TORSION   1  2  3  9              -1.1054255     -63.3362144
  35 TORSION   1  2  4 11              -3.0713182    -175.9735717
  36 TORSION   1  2  3 10               1.0013323      57.3721139
  37 TORSION   1  2  3  8               3.0711216     175.9623032
  38 TORSION   1  2  4 12              -1.0014920     -57.3812644
  39 TORSION   1  2  4 13               1.1051051      63.3178574
  40 TORSION   3  2  4 11               1.0014254      57.3774494
  41 TORSION   3  2  4 12               3.0712516     175.9697567
  42 TORSION   3  2  1  5              -3.0713761    -175.9768884
  43 TORSION   3  2  4 13              -1.1053366     -63.3311215
  44 TORSION   3  2  1  7               1.1051126      63.3182875
  45 TORSION   3  2  1  6              -1.0015496     -57.3845640
  46 TORSION   4  2  3 10              -3.0714667    -175.9820785
  47 TORSION   4  2  3  8              -1.0016774     -57.3918892
  48 TORSION   4  2  1  7              -1.1053562     -63.3322479
  49 TORSION   4  2  3  9               1.1049608      63.3095932
  50 TORSION   4  2  1  6               3.0711669     175.9649005
  51 TORSION   4  2  1  5               1.0013404      57.3725761

          GAMESS/COSab RESULTS
 =====================================================

   Dielectric Constant                  = INFTY
   Basic Grid Size                      =                 1082
   Number of Segments                   =                   92
   Number of Segments located on spheres=                  192
   Number of Segments of the cavity     =                  429
   Solvent Radius (rsolv)               = 1.40
   Outlying Charge Error Method         = double cavity

 =====================================================

  Total solvated Energy (a.u.)          =  -173.3333202527
  Total Energy corrected (a.u.)         =  -173.3333030032

  Outlying charge effect (a.u.)         =     0.0000172495
  Outlying charge effect (kcal/mol)     =     0.0108242507

  Dielectric Energy (a.u.)              =    -0.0053309490
  Dielectric energy corr. (a.u.)        =    -0.0053136995

  Sum of polarization charges           =     0.0254756264
  Sum of polarization charges(cor.)     =    -0.0254756264

  Total surface area of cavity (A**2)   =  110.64
  Total volume of cavity (A**3)         =   97.63

 =====================================================
 NPS=                   429
NR.  ATOM  (X, Y, Z)(a.u.)                  CHARGE(e)  AREA(A**2) SIGMA(e/A**2)
   1   1   2.264184   0.329647   7.552480   0.001426   0.418105   0.003410
   2   1   0.847018  -0.276127   1.429046   0.000927   0.278737   0.003324
   3   1  -0.467290  -0.739918   4.920412   0.000905   0.418105   0.002165
   4   1  -0.538810   2.689017   6.921002   0.000657   0.371649   0.001767
   5   1   4.007610   0.540787   7.017064   0.000700   0.232280   0.003013
   6   1  -1.188547   2.866353   6.056179   0.000720   0.371649   0.001937
   7   1  -1.053105  -0.195077   4.378745   0.000472   0.278737   0.001694
   8   1  -0.066950   0.027637   1.738968   0.000799   0.371649   0.002149
   9   1   3.388926   0.112309   7.129241   0.000658   0.232280   0.002833
  10   1   3.256635   0.906805   7.568946   0.000867   0.232280   0.003732
  11   1   0.616566   0.635762   0.961082   0.001140   0.232280   0.004906
  12   1   0.336288  -0.871302   2.432617   0.000965   0.325193   0.002969
  13   1  -0.275252  -0.939248   3.649396   0.001176   0.325193   0.003618
  14   1  -0.937991   0.221343   5.742667   0.000258   0.464561   0.000556
  15   1  -0.853945   1.520736   6.624107   0.000120   0.464561   0.000259
  16   1  -0.606443   3.914584   6.191681   0.001368   0.371649   0.003680
  17   1  -0.057870   4.932664   5.491189   0.001172   0.325193   0.003603
  18   1   1.577908  -0.524553   1.441917   0.000312   0.185824   0.001678
  19   1   1.229022  -1.031899   2.119397   0.000518   0.232280   0.002228
  20   1   0.048736  -0.501557   6.208502   0.000105   0.418105   0.000250
  21   1   1.031105  -0.064749   7.182502   0.000332   0.418105   0.000795
  22   1   1.170606   0.953081   7.717709   0.000645   0.464561   0.001388
  23   1   0.074800   1.786775   7.438612   0.000201   0.325193   0.000618
  24   1   4.197078   1.305522   7.172382   0.000465   0.139368   0.003340
  25   1  -1.333486   1.251165   5.806615  -0.000002   0.278737  -0.000006
  26   1  -0.419160  -0.543780   2.843159   0.000884   0.278737   0.003170
  27   1   0.065334   1.232453   1.040304   0.000272   0.139368   0.001949
  28   1  -0.786201   4.389240   5.204554   0.000987   0.325193   0.003034
  29   1   2.259003  -0.883540   1.805525   0.000548   0.232280   0.002359
  30   1  -0.114614   0.538551   6.948747  -0.000135   0.464561  -0.000291
  31   2   3.762999   0.706756  -0.388000   0.005363   0.233365   0.022979
  32   2   3.072745   1.940663  -1.005680   0.007169   0.311154   0.023040
  33   2   4.115466   1.389387  -0.814054   0.008155   0.311154   0.026208
  34   2   1.710188   1.956390  -0.409577   0.005137   0.233365   0.022013
  35   2   1.656787   1.397902  -0.080776   0.002778   0.194471   0.014283
  36   2   2.549813   0.467600   0.124529   0.005186   0.194471   0.026667
  37   2   3.486959   0.203763   0.151425   0.006556   0.311154   0.021069
  38   2   4.270072   2.191402  -1.081318   0.004012   0.233365   0.017192
  39   2   2.623989   1.161331  -0.516487   0.010363   0.388942   0.026645
  40   2   3.589620  -0.197651   0.814351   0.001999   0.116683   0.017133
  41   3   8.329074   1.286558   5.854883   0.001254   0.371649   0.003373
  42   3   6.381182   0.297655  -0.121846   0.000666   0.278737   0.002390
  43   3   9.656105   4.115761   3.773132   0.000958   0.418105   0.002292
  44   3   9.446622   0.483080   2.402354   0.000543   0.371649   0.001460
  45   3   6.484134   1.153463   6.418538   0.000944   0.278737   0.003387
  46   3   9.500717   1.080582   1.484972   0.000654   0.371649   0.001758
  47   3   9.647911   4.343249   2.725060   0.000510   0.278737   0.001830
  48   3   8.081892   5.795775   2.088504   0.000239   0.139368   0.001713
  49   3   7.099711   0.990096  -0.442189   0.000875   0.371649   0.002354
  50   3   7.252280   1.525669   6.428241   0.000829   0.232280   0.003569
  51   3   7.583954   0.661029   5.931457   0.000807   0.278737   0.002895
  52   3   6.160494   1.244075  -0.631020   0.000475   0.232280   0.002047
  53   3   8.135209   5.868513   3.006973   0.001069   0.278737   0.003834
  54   3   8.978615   5.200227   3.390985   0.001198   0.325193   0.003684
  55   3  10.059469   3.057471   3.198697   0.000219   0.464561   0.000471
  56   3   9.962924   1.530165   2.837535   0.000108   0.464561   0.000233
  57   3   8.732880   0.194477   1.199949   0.001184   0.371649   0.003186
  58   3   7.475678  -0.052629   0.426008   0.001292   0.418105   0.003090
  59   3   6.280308  -0.466641   0.637456   0.000540   0.278737   0.001939
  60   3   5.671606   0.098418   0.111656   0.001299   0.232280   0.005593
  61   3   9.760110   2.859523   4.456959   0.000241   0.371649   0.000648
  62   3   9.247740   1.933467   5.226015   0.000499   0.418105   0.001193
  63   3   9.038697   0.839446   4.907731   0.000487   0.464561   0.001049
  64   3   9.506354   0.631352   3.599403   0.000019   0.325193   0.000060
  65   3   6.619008   0.421700   6.018923   0.000435   0.185824   0.002339
  66   3  10.055557   2.371232   2.332613   0.000017   0.278737   0.000061
  67   3   8.811489   5.380698   2.593174   0.000588   0.185824   0.003162
  68   3   6.211309   2.160880  -0.846393   0.000555   0.139368   0.003979
  69   3   8.245940   0.614908   0.295427   0.000902   0.325193   0.002773
  70   3   5.358804  -0.545480   0.973154   0.000477   0.139368   0.003423
  71   3   9.851663   1.790788   4.036786  -0.000128   0.418105  -0.000306
  72   4   0.748930   8.269935   2.591949   0.001425   0.418105   0.003409
  73   4   2.435130   4.059598  -1.801405   0.000930   0.278737   0.003335
  74   4   1.743587   7.701937  -1.179090   0.000905   0.418105   0.002165
  75   4   4.195044   9.206593   1.557958   0.000657   0.371649   0.001767
  76   4   0.276316   6.833177   3.632692   0.000698   0.232280   0.003007
  77   4   4.861387   8.851789   0.763210   0.000720   0.371649   0.001937
  78   4   2.612515   7.557526  -1.576007   0.000472   0.278737   0.001694
  79   4   3.029503   4.814719  -2.117911   0.000798   0.371649   0.002148
  80   4   0.161840   7.297845   3.041147   0.000657   0.232280   0.002830
  81   4   0.788339   7.692194   3.583415   0.000867   0.232280   0.003731
  82   4   3.437893   3.755584  -1.726035   0.001143   0.232280   0.004920
  83   4   1.901986   5.206332  -1.953033   0.000965   0.325193   0.002967
  84   4   1.810527   6.557394  -1.793607   0.001176   0.325193   0.003617
  85   4   2.568235   8.593524  -0.590266   0.000258   0.464561   0.000556
  86   4   3.415422   9.202506   0.586100   0.000120   0.464561   0.000259
  87   4   5.458712   8.578619   1.775423   0.001368   0.371649   0.003681
  88   4   6.258702   7.637507   2.325361   0.001172   0.325193   0.003605
  89   4   1.888610   3.670743  -1.419058   0.000311   0.185824   0.001676
  90   4   1.440379   4.452832  -1.578828   0.000517   0.232280   0.002225
  91   4   1.384968   8.458608  -0.047226   0.000105   0.418105   0.000251
  92   4   1.064802   8.682650   1.349851   0.000332   0.418105   0.000795
  93   4   1.734648   8.990227   2.243489   0.000645   0.464561   0.001389
  94   4   3.014334   9.334607   1.777084   0.000201   0.325193   0.000618
  95   4   0.804211   6.813208   4.237482   0.000465   0.139368   0.003340
  96   4   3.610818   8.814466  -0.298302  -0.000002   0.278737  -0.000006
  97   4   2.419199   5.953532  -2.096910   0.000884   0.278737   0.003170
  98   4   4.177085   4.100208  -1.757714   0.000272   0.139368   0.001952
  99   4   6.197410   7.841794   1.396682   0.000988   0.325193   0.003037
 100   4   1.180726   3.604772  -0.950528   0.000548   0.232280   0.002360
 101   4   2.158701   9.104876   0.752865  -0.000135   0.464561  -0.000290
 102   5  -2.352310   2.011196   3.112097  -0.002856   0.471065  -0.006064
 103   5  -1.680731   3.939810   3.962902  -0.001297   0.333671  -0.003888
 104   5  -2.127689   2.478784   4.683990  -0.001466   0.392554  -0.003735
 105   5  -1.874126   0.722413   3.404827  -0.001194   0.353299  -0.003379
 106   5  -1.128407   1.623165   1.506845  -0.001394   0.392554  -0.003551
 107   5  -2.099214   3.215764   2.889924  -0.002625   0.412182  -0.006370
 108   5  -2.147846   3.174624   4.148734  -0.001604   0.353299  -0.004541
 109   5  -2.160814   1.424706   4.266264  -0.001645   0.412182  -0.003990
 110   5  -1.648104   0.940984   2.362732  -0.001819   0.471065  -0.003862
 111   5  -1.814294   2.351778   1.976059  -0.002489   0.412182  -0.006039
 112   6   2.478741  -2.361440   5.004638  -0.002607   0.431809  -0.006037
 113   6   3.389047  -1.193835   6.379497  -0.001496   0.451437  -0.003314
 114   6   2.633161  -1.890438   3.057804  -0.001208   0.314043  -0.003845
 115   6   1.057785  -1.997392   4.064129  -0.001132   0.372926  -0.003036
 116   6   1.239410  -1.537726   6.063931  -0.001100   0.353299  -0.003114
 117   6   3.448827  -1.939559   5.461712  -0.002594   0.412182  -0.006292
 118   6   3.145505  -2.221169   4.052970  -0.002212   0.353299  -0.006261
 119   6   1.959017  -2.212142   3.649206  -0.001670   0.372926  -0.004478
 120   6   1.217124  -2.072730   5.081382  -0.002075   0.451437  -0.004596
 121   6   2.246806  -1.698493   6.266260  -0.002181   0.471065  -0.004630
 122   7   2.333054   4.029218   8.229989  -0.001538   0.372926  -0.004125
 123   7   3.552789   2.660825   7.998687  -0.000789   0.353299  -0.002234
 124   7   1.822996   2.427931   8.333585  -0.000751   0.353299  -0.002125
 125   7   0.641113   4.150242   7.527415  -0.000662   0.353299  -0.001873
 126   7   1.203743   5.050629   6.989119  -0.000813   0.353299  -0.002301
 127   7   3.392402   3.892381   7.955956  -0.001508   0.372926  -0.004044
 128   7   2.699367   2.755059   8.372592  -0.001011   0.372926  -0.002711
 129   7   1.428495   3.559843   8.259163  -0.001117   0.294415  -0.003792
 130   7   1.670098   4.718280   7.700565  -0.001189   0.333671  -0.003564
 131   7   2.894635   4.890335   7.445009  -0.001932   0.412182  -0.004687
 132   7   0.793216   3.026242   7.999532  -0.000511   0.274788  -0.001861
 133   8   9.094705   3.266101  -0.530090  -0.002969   0.490692  -0.006051
 134   8   8.055573   2.181038  -0.842589  -0.001175   0.372926  -0.003150
 135   8   9.736150   2.509893   0.470564  -0.001571   0.412182  -0.003811
 136   8   9.617756   4.417900   1.175103  -0.001190   0.353299  -0.003369
 137   8   8.830064   5.179553   0.961637  -0.001041   0.294415  -0.003535
 138   8   7.668276   3.111870  -1.091426  -0.002262   0.412182  -0.005488
 139   8   9.002467   1.991166  -0.242929  -0.001422   0.412182  -0.003450
 140   8   9.888649   3.518906   0.782070  -0.002116   0.471065  -0.004492
 141   8   9.001979   4.629067   0.082527  -0.002386   0.412182  -0.005789
 142   8   8.428344   4.157807  -0.683321  -0.002245   0.353299  -0.006354
 143   9   7.975294   4.657341   6.536437  -0.002003   0.471065  -0.004252
 144   9   7.116275   2.970066   6.959325  -0.000601   0.353299  -0.001702
 145   9   8.412716   5.502951   4.966714  -0.000567   0.372926  -0.001521
 146   9   9.012114   3.754207   5.842490  -0.000875   0.412182  -0.002124
 147   9   6.959794   4.007889   7.017465  -0.001566   0.412182  -0.003799
 148   9   6.680807   5.103443   6.527437  -0.002059   0.451437  -0.004561
 149   9   7.528308   5.758892   5.590835  -0.001756   0.471065  -0.003728
 150   9   8.801980   4.806345   5.581256  -0.001269   0.431809  -0.002939
 151   9   8.231612   3.235348   6.627494  -0.001214   0.490692  -0.002473
 152  10   7.562587  -1.715512   3.452022  -0.002857   0.471065  -0.006064
 153  10   6.756528  -0.805141   5.300246  -0.001297   0.333671  -0.003887
 154  10   8.281367  -0.735839   4.576092  -0.001471   0.392554  -0.003748
 155  10   8.275515  -1.086639   2.416857  -0.001195   0.353299  -0.003383
 156  10   6.119639  -1.479298   2.007222  -0.001391   0.392554  -0.003544
 157  10   6.614586  -1.678696   4.267093  -0.002626   0.412182  -0.006370
 158  10   7.528358  -1.067103   4.883238  -0.001608   0.353299  -0.004550
 159  10   8.603256  -0.923698   3.504751  -0.001646   0.412182  -0.003994
 160  10   7.330730  -1.444135   2.011395  -0.001820   0.471065  -0.003863
 161  10   6.342759  -1.861600   3.019913  -0.002489   0.412182  -0.006038
 162  11   5.408807   7.130068  -1.973431  -0.002856   0.471065  -0.006063
 163  11   6.535274   7.348393  -0.081911  -0.001297   0.333671  -0.003886
 164  11   5.305600   8.272767  -0.780316  -0.001466   0.392554  -0.003734
 165  11   4.016565   7.170021  -2.161523  -0.001193   0.353299  -0.003378
 166  11   4.932483   5.137650  -2.142931  -0.001394   0.392554  -0.003550
 167  11   6.379925   6.739765  -1.288598  -0.002625   0.412182  -0.006370
 168  11   6.045717   7.806132  -0.705650  -0.001604   0.353299  -0.004540
 169  11   4.526645   8.003810  -1.559781  -0.001644   0.412182  -0.003990
 170  11   4.366740   6.172473  -2.420552  -0.001819   0.471065  -0.003862
 171  11   5.745883   5.872442  -2.001720  -0.002489   0.412182  -0.006039
 172  12  -0.997359   6.194376   0.057758  -0.002607   0.431809  -0.006037
 173  12  -0.759294   6.778961   1.964460  -0.001442   0.431809  -0.003339
 174  12  -0.168330   4.478656  -0.578536  -0.001209   0.314043  -0.003851
 175  12   0.197080   6.202765  -1.210883  -0.001133   0.372926  -0.003037
 176  12  -0.002578   7.722578   0.165269  -0.001100   0.353299  -0.003114
 177  12  -1.192872   6.000434   1.176743  -0.002599   0.412182  -0.006305
 178  12  -0.936750   5.026596   0.108145  -0.002213   0.353299  -0.006262
 179  12  -0.288702   5.363605  -0.910345  -0.001671   0.372926  -0.004480
 180  12  -0.198918   6.954582  -0.624517  -0.002075   0.451437  -0.004597
 181  12  -0.647767   7.328924   0.879689  -0.002181   0.471065  -0.004630
 182  13   3.705459   8.591153   4.895477  -0.001538   0.372926  -0.004125
 183  13   2.043040   7.785031   4.912325  -0.000789   0.353299  -0.002234
 184  13   2.542047   9.050132   3.768168  -0.000751   0.353299  -0.002125
 185  13   4.754312   8.961542   3.434778  -0.000661   0.353299  -0.001871
 186  13   5.406015   8.152356   4.015736  -0.000812   0.353299  -0.002299
 187  13   3.178697   7.774560   5.416758  -0.001508   0.372926  -0.004043
 188  13   2.414669   8.569864   4.561691  -0.001011   0.372926  -0.002711
 189  13   3.706688   9.151097   4.043506  -0.001116   0.294415  -0.003791
 190  13   4.729412   8.492682   4.526112  -0.001189   0.333671  -0.003562
 191  13   4.387013   7.581503   5.330424  -0.001932   0.412182  -0.004686
 192  13   3.604765   9.324562   3.197790  -0.000511   0.274788  -0.001860
 193   1   3.591701  -0.629344   1.862601   0.000514   0.060929   0.008441
 194   2   3.886962  -0.449648   1.525022   0.000948   0.060929   0.015554
 195   3   4.347785  -0.539237   1.639252   0.000543   0.060929   0.008914
 196   1   0.571192   2.270111   0.584094   0.000525   0.060931   0.008622
 197   2   0.885618   2.431413   0.254629   0.000880   0.060931   0.014446
 198   4   0.779746   2.885775   0.129040   0.000510   0.060931   0.008371
 199   2   3.228159  -0.278425   1.150131   0.003585   0.227511   0.015757
 200   2   1.692792   1.074468   0.443476   0.010469   0.479993   0.021811
 201   1   2.165836  -0.094270   1.277102   0.005734   0.479288   0.011964
 202   1   0.685960   1.443674   0.705773   0.001650   0.238520   0.006916
 203   1   3.503496  -0.922516   2.313530   0.000051   0.063429   0.000802
 204   3   4.258316  -0.767904   2.128089   0.000169   0.063429   0.002665
 205   6   3.483115  -1.107856   2.552794  -0.000203   0.063429  -0.003205
 206   1   4.518321   2.092048   7.043470   0.000062   0.059162   0.001056
 207   3   5.245133   2.191524   6.744444   0.000081   0.059162   0.001371
 208   7   4.370450   2.324077   7.180798  -0.000086   0.059162  -0.001454
 209   1   4.971584   0.018410   5.911221  -0.000062   0.063432  -0.000978
 210   3   5.745141   0.063481   5.745011  -0.000048   0.063432  -0.000761
 211  10   5.837717  -0.173546   5.579908  -0.000220   0.063432  -0.003471
 212   3   5.717544   1.301177   6.418721   0.000413   0.571787   0.000723
 213   1   4.637259   0.777713   6.569591   0.000267   0.571787   0.000466
 214   3   4.583474  -0.759327   1.748393   0.000208   0.056023   0.003713
 215   1   3.492721  -0.868193   2.031087   0.000240   0.056023   0.004287
 216   1  -0.594074   4.830503   3.939968  -0.000048   0.063433  -0.000755
 217   4  -0.324570   5.406568   3.467199  -0.000063   0.063433  -0.000985
 218   5  -0.796389   4.654959   3.797609  -0.000220   0.063433  -0.003472
 219   1   0.291740   2.735394   0.651745   0.000166   0.063432   0.002612
 220   4   0.454300   3.322581   0.145010   0.000050   0.063432   0.000788
 221  12   0.244147   3.541035   0.156364  -0.000204   0.063432  -0.003218
 222   1   1.195310   5.821944   5.201594   0.000081   0.059160   0.001371
 223   4   1.363303   6.483905   4.800220   0.000063   0.059160   0.001058
 224  13   1.593476   6.668067   4.887763  -0.000086   0.059160  -0.001455
 225   4   0.307576   6.096869   3.962663   0.000269   0.571708   0.000471
 226   1   0.303855   5.334638   4.902151   0.000337   0.571708   0.000590
 227   4   0.577603   3.093190   0.022592   0.000238   0.055993   0.004257
 228   1   0.248624   2.238675   0.688157   0.000202   0.055993   0.003613
 229   1   0.023642   2.441868   0.914273  -0.000024   0.083318  -0.000285
 230   5  -0.250379   2.491738   1.037868  -0.000279   0.083318  -0.003346
 231  12   0.049446   3.303003   0.522098  -0.000112   0.083318  -0.001341
 232   5  -0.494369   1.828194   1.212378  -0.000252   0.068492  -0.003684
 233   5  -0.764345   0.898768   1.751789  -0.000440   0.152004  -0.002893
 234   5  -1.185218   0.300382   2.874262  -0.000387   0.152004  -0.002544
 235   5  -1.561194   0.548496   4.136097  -0.000594   0.152004  -0.003909
 236   5  -1.737707   1.541106   5.018544  -0.000658   0.152004  -0.004330
 237   5  -1.642191   2.870144   5.158823  -0.000542   0.152004  -0.003567
 238   5  -1.313913   3.989234   4.499265  -0.000439   0.152004  -0.002889
 239   1  -0.216783   1.304672   1.271311  -0.000279   0.150183  -0.001858
 240   1  -0.639962   0.238886   2.246285  -0.000202   0.150183  -0.001347
 241   1  -1.112497   0.031173   3.660188  -0.000203   0.150183  -0.001354
 242   1  -1.440125   0.766927   4.931754  -0.000453   0.150183  -0.003016
 243   1  -1.488156   2.143673   5.538235  -0.000490   0.150183  -0.003261
 244   1  -1.236845   3.595421   5.230300  -0.000263   0.150183  -0.001750
 245   1  -0.894072   4.466239   4.443073  -0.000116   0.083679  -0.001381
 246   1   4.551744  -0.188280   6.001396  -0.000105   0.083322  -0.001255
 247   6   4.446052  -0.457498   5.905465  -0.000267   0.083322  -0.003200
 248  10   5.379618  -0.308318   5.558324  -0.000180   0.083322  -0.002164
 249   6   3.878107  -0.595084   6.340069  -0.000186   0.068499  -0.002722
 250   6   2.859440  -0.696640   6.764212  -0.000475   0.152022  -0.003124
 251   6   1.557032  -0.953349   6.581819  -0.000615   0.152022  -0.004047
 252   6   0.656471  -1.273199   5.642607  -0.000638   0.152022  -0.004198
 253   6   0.528048  -1.524674   4.332759  -0.000462   0.152022  -0.003037
 254   6   1.224567  -1.604372   3.190856  -0.000438   0.152022  -0.002884
 255   6   2.459635  -1.479525   2.686423  -0.000578   0.152022  -0.003799
 256   1   3.557121  -0.244442   6.698748  -0.000265   0.150195  -0.001763
 257   1   2.091711  -0.448867   6.975700  -0.000385   0.150195  -0.002565
 258   1   0.785331  -0.790772   6.310578  -0.000500   0.150195  -0.003332
 259   1   0.175134  -1.129572   4.976865  -0.000379   0.150195  -0.002523
 260   1   0.512019  -1.325961   3.522955  -0.000249   0.150195  -0.001660
 261   1   1.657468  -1.299187   2.546662  -0.000206   0.150195  -0.001369
 262   1   2.847033  -1.134407   2.315187   0.000017   0.083686   0.000209
 263   1   1.151870   5.512290   5.589969   0.000066   0.086416   0.000764
 264   7   1.298977   5.466762   5.858149  -0.000060   0.086416  -0.000689
 265  13   1.638904   6.266849   5.183967   0.000056   0.086416   0.000650
 266   7   0.854580   5.062578   6.348749  -0.000081   0.073753  -0.001103
 267   7   0.306921   4.188016   6.902268  -0.000331   0.165287  -0.002004
 268   7   0.415989   2.954533   7.581392  -0.000557   0.165287  -0.003372
 269   7   1.390418   2.019075   7.993693  -0.000568   0.165287  -0.003434
 270   7   2.786195   1.807896   7.951301  -0.000287   0.165287  -0.001738
 271   7   3.834778   2.201567   7.609733  -0.000088   0.073753  -0.001190
 272   1   0.366156   4.712358   6.209058  -0.000033   0.160329  -0.000204
 273   1  -0.049538   3.398368   6.993788  -0.000196   0.160329  -0.001221
 274   1   0.596738   2.104654   7.644793  -0.000399   0.160329  -0.002486
 275   1   2.010499   1.420717   7.865433  -0.000196   0.160329  -0.001226
 276   1   3.547546   1.658201   7.555171   0.000001   0.160329   0.000004
 277   2   5.030480   2.925767  -0.969764   0.000946   0.060927   0.015534
 278   3   5.498603   2.857729  -0.871461   0.000504   0.060927   0.008268
 279   4   4.951074   3.383288  -1.103166   0.000538   0.060927   0.008830
 280   3   4.846385  -0.334013   0.990917   0.001743   0.238543   0.007307
 281   3   5.438507   1.308138  -0.363796   0.005477   0.479339   0.011425
 282   2   4.417770   0.410272   0.297167   0.010172   0.480047   0.021190
 283   2   4.973630   2.159908  -0.850694   0.003385   0.227534   0.014876
 284   4   4.162059   3.462947  -1.389722   0.001676   0.238526   0.007024
 285   4   2.032117   3.180094  -0.874604   0.005774   0.479302   0.012047
 286   2   3.457469   2.698135  -1.018938   0.010450   0.480009   0.021771
 287   2   1.425955   2.485497  -0.301275   0.003060   0.227518   0.013448
 288   3   6.014943   3.030999  -0.861991   0.000031   0.063427   0.000481
 289   4   5.457723   3.571628  -1.021036   0.000167   0.063427   0.002626
 290   8   6.293898   3.147218  -0.888251  -0.000211   0.063427  -0.003319
 291   3   7.116727   6.182328   3.757866   0.000079   0.059165   0.001339
 292   4   6.524955   6.643246   3.503014   0.000085   0.059165   0.001430
 293   9   7.147479   6.114614   4.056247  -0.000078   0.059165  -0.001315
 294   3   7.300733   6.095083   1.360970  -0.000062   0.063429  -0.000977
 295   4   6.810143   6.667534   1.116656  -0.000047   0.063429  -0.000748
 296  11   6.788074   6.673979   0.814196  -0.000220   0.063429  -0.003469
 297   4   6.588802   6.926043   2.484282   0.000348   0.571747   0.000608
 298   3   7.477843   6.109262   2.405035   0.000263   0.571747   0.000460
 299   4   5.043694   3.652706  -1.289231   0.000205   0.055928   0.003657
 300   3   5.794440   2.873000  -0.957587   0.000212   0.055928   0.003794
 301   3   4.726600  -0.845414   2.087639  -0.000021   0.083325  -0.000252
 302   6   3.958022  -1.072247   2.591632  -0.000110   0.083325  -0.001319
 303  10   4.907865  -1.018245   2.261194  -0.000277   0.083325  -0.003325
 304   3   5.707705   2.372140   6.697261   0.000069   0.086417   0.000798
 305   7   4.780860   2.537812   6.988812   0.000056   0.086417   0.000649
 306   9   5.851831   2.638908   6.758064  -0.000059   0.086417  -0.000684
 307   3   7.669904   5.794053   1.343346  -0.000108   0.083326  -0.001301
 308   8   7.803593   5.668558   1.099976  -0.000268   0.083326  -0.003221
 309  11   7.056849   6.278619   0.808971  -0.000180   0.083326  -0.002163
 310   8   8.438473   5.415498   1.351613  -0.000219   0.068500  -0.003191
 311   8   9.249964   4.770089   1.742624  -0.000476   0.152026  -0.003131
 312   8   9.859113   3.576916   1.770963  -0.000611   0.152026  -0.004021
 313   8   9.799660   2.339025   1.261436  -0.000633   0.152026  -0.004161
 314   8   9.096052   1.565441   0.423564  -0.000459   0.152026  -0.003019
 315   8   8.037617   1.574265  -0.398119  -0.000458   0.152026  -0.003011
 316   8   7.059586   2.361868  -0.865733  -0.000551   0.152026  -0.003621
 317   3   8.633403   5.308022   1.903964  -0.000206   0.150197  -0.001369
 318   3   9.603814   4.210364   2.249624  -0.000330   0.150197  -0.002197
 319   3   9.929790   2.768717   1.964275  -0.000489   0.150197  -0.003258
 320   3   9.477287   1.575890   1.165252  -0.000344   0.150197  -0.002288
 321   3   8.432376   1.122379   0.181117  -0.000184   0.150197  -0.001222
 322   3   7.224729   1.594669  -0.583450  -0.000315   0.150197  -0.002099
 323   3   6.433110   2.482406  -0.868299  -0.000077   0.083688  -0.000923
 324   9   6.619875   2.534588   6.787078  -0.000076   0.073757  -0.001029
 325   9   7.743690   2.399620   6.486839  -0.000314   0.165299  -0.001902
 326   9   8.859362   2.909860   5.787042  -0.000519   0.165299  -0.003142
 327   9   9.230628   4.005521   4.976810  -0.000523   0.165299  -0.003163
 328   9   8.688296   5.187293   4.425378  -0.000354   0.165299  -0.002139
 329   9   7.755296   5.885384   4.309192  -0.000093   0.073757  -0.001256
 330   3   6.942464   2.063802   6.552466  -0.000085   0.160336  -0.000528
 331   3   8.414164   2.184610   5.973733  -0.000225   0.160336  -0.001402
 332   3   9.301087   3.142492   5.073036  -0.000389   0.160336  -0.002425
 333   3   9.199050   4.500927   4.260836  -0.000209   0.160336  -0.001305
 334   3   8.154554   5.640856   3.907264  -0.000044   0.160336  -0.000272
 335  10   5.513483  -1.100937   1.865281  -0.000251   0.068494  -0.003668
 336  10   6.532717  -1.002855   1.441823  -0.000433   0.152010  -0.002851
 337  10   7.835697  -0.749892   1.624901  -0.000391   0.152010  -0.002570
 338  10   8.736523  -0.431846   2.564383  -0.000598   0.152010  -0.003936
 339  10   8.864828  -0.179479   3.874006  -0.000665   0.152010  -0.004371
 340  10   8.167860  -0.096550   5.015332  -0.000557   0.152010  -0.003663
 341  10   6.932172  -0.217153   5.519113  -0.000443   0.152010  -0.002917
 342   3   5.723967  -0.805304   1.393149  -0.000276   0.150185  -0.001841
 343   3   7.190118  -0.605556   1.117095  -0.000161   0.150185  -0.001074
 344   3   8.496989  -0.266944   1.782780  -0.000225   0.150185  -0.001500
 345   3   9.107271   0.071314   3.116513  -0.000461   0.150185  -0.003068
 346   3   8.770050   0.270147   4.569941  -0.000481   0.150185  -0.003200
 347   3   7.623973   0.247806   5.545500  -0.000271   0.150185  -0.001805
 348   3   6.433835   0.086865   5.776413  -0.000142   0.083681  -0.001697
 349   4  -0.333909   5.728941   3.116498  -0.000105   0.083318  -0.001266
 350   5  -0.698493   4.903052   3.401074  -0.000181   0.083318  -0.002170
 351  12  -0.491583   5.723980   2.855793  -0.000274   0.083318  -0.003287
 352   4   5.261520   3.955150  -1.224821  -0.000023   0.083328  -0.000273
 353   8   6.085519   3.571315  -0.960365  -0.000113   0.083328  -0.001352
 354  11   5.396673   4.209025  -1.325470  -0.000278   0.083328  -0.003340
 355   4   6.180801   7.004335   3.510040   0.000067   0.086418   0.000777
 356   9   6.708362   6.354489   4.030504   0.000058   0.086418   0.000668
 357  13   6.006868   7.144578   3.723840  -0.000059   0.086418  -0.000683
 358  11   4.895791   4.526084  -1.748574  -0.000252   0.068498  -0.003678
 359  11   4.086360   5.172468  -2.142149  -0.000440   0.152019  -0.002893
 360  11   3.479387   6.366641  -2.173217  -0.000387   0.152019  -0.002543
 361  11   3.539820   7.604969  -1.664962  -0.000594   0.152019  -0.003909
 362  11   4.242811   8.378271  -0.826369  -0.000658   0.152019  -0.004331
 363  11   5.299300   8.368580  -0.002254  -0.000542   0.152019  -0.003566
 364  11   6.274879   7.579880   0.468522  -0.000439   0.152019  -0.002888
 365   4   4.307780   4.445846  -1.797893  -0.000279   0.150191  -0.001855
 366   4   3.340122   5.544792  -2.146989  -0.000202   0.150191  -0.001346
 367   4   3.016019   6.987287  -1.864012  -0.000203   0.150191  -0.001354
 368   4   3.468736   8.180203  -1.065319  -0.000453   0.150191  -0.003016
 369   4   4.512124   8.633031  -0.079317  -0.000490   0.150191  -0.003261
 370   4   5.717160   8.159578   0.688565  -0.000263   0.150191  -0.001750
 371   4   6.506586   7.270856   0.976269  -0.000115   0.083685  -0.001377
 372  12  -0.462676   6.409898   2.612978  -0.000198   0.068494  -0.002887
 373  12  -0.196262   7.339720   2.072441  -0.000475   0.152009  -0.003123
 374  12   0.220781   7.938525   0.948738  -0.000615   0.152009  -0.004047
 375  12   0.594915   7.690601  -0.313704  -0.000638   0.152009  -0.004198
 376  12   0.772328   6.697874  -1.195871  -0.000462   0.152009  -0.003038
 377  12   0.680082   5.368472  -1.335090  -0.000439   0.152009  -0.002886
 378  12   0.356101   4.248935  -0.674124  -0.000578   0.152009  -0.003804
 379   4  -0.109220   6.867785   2.754469  -0.000267   0.150187  -0.001775
 380   4   0.309169   7.934101   1.777972  -0.000385   0.150187  -0.002565
 381   4   0.778340   8.142175   0.362977  -0.000500   0.150187  -0.003331
 382   4   1.105410   7.406463  -0.908785  -0.000379   0.150187  -0.002523
 383   4   1.155915   6.029431  -1.514471  -0.000249   0.150187  -0.001661
 384   4   0.909090   4.577199  -1.205073  -0.000206   0.150187  -0.001372
 385   4   0.570205   3.705986  -0.416570   0.000017   0.083681   0.000200
 386  13   5.737782   7.821239   3.456816  -0.000081   0.073751  -0.001098
 387  13   5.097652   8.633192   2.907163  -0.000331   0.165283  -0.002002
 388  13   3.821371   9.197011   2.688603  -0.000557   0.165283  -0.003370
 389  13   2.475680   9.036503   3.085977  -0.000567   0.165283  -0.003433
 390  13   1.673758   8.224805   3.918216  -0.000287   0.165283  -0.001738
 391  13   1.622102   7.330340   4.672149  -0.000088   0.073751  -0.001190
 392   4   5.695511   8.000736   2.867994  -0.000032   0.160325  -0.000200
 393   4   4.561260   8.952142   2.299279  -0.000195   0.160325  -0.001219
 394   4   2.997326   9.192706   2.405936  -0.000398   0.160325  -0.002485
 395   4   1.716335   8.612812   3.139366  -0.000197   0.160325  -0.001226
 396   4   1.301985   7.476696   4.165373   0.000000   0.160325   0.000003
 397  12  -0.330749   3.757462   0.237924  -0.000361   0.265568  -0.001359
 398  12  -1.020287   4.519282   0.952466  -0.001798   0.531426  -0.003384
 399  12  -1.015278   5.420064   2.173286  -0.001418   0.531426  -0.002669
 400   5  -1.001952   2.928289   1.315355  -0.001509   0.531426  -0.002839
 401   5  -1.534958   3.885026   2.365305  -0.001773   0.531426  -0.003335
 402   5  -1.249696   4.545465   3.389438  -0.000275   0.265568  -0.001034
 403  10   5.823226  -0.766042   5.398512  -0.000274   0.265565  -0.001031
 404  10   5.618806  -1.503795   4.408561  -0.001772   0.531419  -0.003334
 405  10   5.193246  -1.540144   2.952899  -0.001505   0.531419  -0.002833
 406   6   4.383999  -1.241428   5.443005  -0.001397   0.531419  -0.002629
 407   6   4.052656  -1.828633   4.084042  -0.001797   0.531419  -0.003381
 408   6   3.677530  -1.568323   2.918886  -0.000358   0.265565  -0.001349
 409   7   4.042132   5.083702   6.260355  -0.000390   0.330970  -0.001178
 410   9   5.103006   5.210217   5.946890  -0.000399   0.330970  -0.001206
 411  13   4.334668   5.947562   5.621877  -0.000390   0.330970  -0.001179
 412   9   5.583864   4.810821   6.594511   0.000001   0.307252   0.000002
 413   9   5.844825   3.564072   6.974478  -0.000209   0.614693  -0.000340
 414   7   4.194261   4.165110   7.222791  -0.000549   0.614693  -0.000892
 415   7   4.422150   2.880154   7.475401   0.000323   0.307252   0.001050
 416  13   1.969797   6.851798   5.360065   0.000323   0.307305   0.001051
 417  13   3.235409   6.703605   5.739429  -0.000548   0.614800  -0.000891
 418   7   2.037452   5.599459   6.441442  -0.000214   0.614800  -0.000348
 419   7   3.317895   5.367054   6.713665   0.000013   0.307305   0.000043
 420  11   7.004005   6.599496   0.237928  -0.000274   0.265552  -0.001031
 421  11   6.830088   5.952560  -0.818920  -0.001770   0.531391  -0.003331
 422  11   6.039179   4.838398  -1.477686  -0.001508   0.531391  -0.002838
 423   8   7.955192   5.418439   0.235946  -0.001387   0.531391  -0.002610
 424   8   7.499235   4.464249  -0.851478  -0.001761   0.531391  -0.003314
 425   8   6.718441   3.527470  -1.131669  -0.000344   0.265552  -0.001296
 426  13   4.789176   6.714595   5.498389   0.000013   0.307279   0.000043
 427  13   5.637023   7.200896   4.597350  -0.000211   0.614748  -0.000344
 428   9   6.216798   5.887129   5.639045  -0.000548   0.614748  -0.000891
 429   9   7.013323   6.281349   4.650439   0.000376   0.307279   0.001225
 =====================================================

              1635638  WORDS OF DYNAMIC MEMORY USED
 EXECUTION OF GAMESS TERMINATED NORMALLY Mon Feb  3 11:26:51 2020
 DDI: 263640 bytes (0.3 MB / 0 MWords) used by master data server.

 ----------------------------------------
 CPU timing information for all processes
 ========================================
 0: 196.783 + 0.451 = 197.235
 ----------------------------------------
 ddikick.x: exited gracefully