10
1,1,1-TRICHLOROACETONE.gamout	Energy:   -1571.1179412
Cl         1.10380       -0.94963       -1.45291
Cl         1.03449       -0.97737        1.49266
Cl         1.47597        1.52684        0.05258
O         -1.37929        1.30767       -0.01639
C          0.61928       -0.02431        0.01818
C         -0.94452        0.18888       -0.01669
C         -1.81204       -1.04541       -0.04992
H         -2.85890       -0.72494       -0.07218
H         -1.58804       -1.65468       -0.93617
H         -1.63191       -1.67413        0.83283
