27
1,1,3,3-TETRAMETHYLCYCLOPENTANE.gamout	Energy:    -353.3205381
C          1.83670        2.22272        2.08885
C          0.81675        3.28736        1.66271
C          1.14884        1.20723        3.02234
C          3.08181        2.84885        2.78347
C          2.46399        1.49846        0.87176
C          4.35250        2.03937        2.34649
C          3.79321        0.94080        1.39293
C          5.32440        2.95719        1.58130
C          5.08270        1.42172        3.54812
H          0.42063        3.83156        2.53354
H          1.27342        4.02315        0.98441
H         -0.03716        2.82953        1.14088
H          0.74475        1.71194        3.91233
H          1.84414        0.43085        3.36874
H          0.31357        0.70822        2.50890
H          3.18663        3.90105        2.48056
H          2.96274        2.85611        3.87684
H          1.80138        0.72572        0.45385
H          2.65155        2.22898        0.06838
H          3.61698        0.00894        1.95102
H          4.49924        0.69503        0.58666
H          5.64612        3.79851        2.21313
H          6.22383        2.40625        1.26760
H          4.85382        3.37680        0.68010
H          4.40957        0.78565        4.14135
H          5.92910        0.79951        3.21878
H          5.48248        2.20119        4.21477
