11
1,1,1,3,3-PENTAFLUOROPROPANE.gamout	Energy:    -614.6794898
C         -2.44413        1.68339       -0.02511
C         -1.19724        2.52663        0.17325
C          0.10792        1.79566       -0.10032
H         -1.18775        2.90535        1.20409
H         -1.26551        3.38011       -0.51419
F         -3.54935        2.43740        0.13623
F         -2.49330        1.16101       -1.27184
F         -2.52275        0.66103        0.84096
F          1.12715        2.70678       -0.06908
F          0.35901        0.87255        0.87108
H          0.13893        1.28157       -1.07161
