8
1,1,1,2-TETRAFLUOROETHANE.gamout	Energy:    -476.2694024
F         -0.46500       -1.08395       -0.77991
C         -0.38784       -0.00001        0.00623
C          0.87972       -0.00027        0.85254
F          1.98453       -0.00001        0.03424
F         -0.46500        1.08443       -0.77921
F         -1.45951       -0.00028        0.82508
H          0.88658        0.90285        1.47897
H          0.88658       -0.90376        1.47843
