16
1,1-DIMETHOXYETHANE.gamout	Energy:    -308.4837129
O          1.98308        0.93403        1.93036
C          3.02465        1.61326        2.61588
O          4.17201        1.57178        1.83062
C          3.34632        0.96302        3.95084
C          0.67211        1.32858        2.26484
C          4.08189        2.25765        0.59585
H          2.70456        2.67085        2.75670
H          2.46083        0.95653        4.60032
H          4.15046        1.51549        4.45515
H          3.67248       -0.07071        3.77723
H         -0.00947        0.79676        1.58935
H          0.40895        1.06948        3.30603
H          0.53370        2.41734        2.12803
H          5.06674        2.18733        0.11914
H          3.32385        1.80364       -0.05982
H          3.83312        3.32335        0.75458
