24
1,1-DIMETHYLCYCLOHEXANE.gamout	Energy:    -314.0680599
C         -1.19461       -0.00001        1.54245
C         -0.92039        0.00001        0.02463
C         -0.11870        1.26059       -0.38849
C          1.33497        1.26600        0.10623
C          2.08048        0.00000       -0.33524
C          1.33495       -1.26599        0.10623
C         -0.11872       -1.26059       -0.38848
C         -2.27147        0.00000       -0.71261
H         -1.77705        0.88808        1.82952
H         -1.77687       -0.88821        1.82953
H         -0.27492        0.00009        2.14143
H         -0.11132        1.31900       -1.49045
H         -0.64505        2.16194       -0.03573
H          1.84993        2.16316       -0.27062
H          1.35775        1.34036        1.20571
H          2.16913       -0.00000       -1.43606
H          3.10796       -0.00002        0.06038
H          1.84991       -2.16316       -0.27061
H          1.35773       -1.34034        1.20571
H         -0.64507       -2.16192       -0.03568
H         -0.11135       -1.31903       -1.49045
H         -2.86436        0.88886       -0.44934
H         -2.12675        0.00004       -1.80310
H         -2.86432       -0.88890       -0.44940
