27
1,1-DIETHYLCYCLOPENTANE.gamout	Energy:    -353.3124426
C          2.81198       -1.05000        1.47676
C          3.38289        0.36169        1.80356
C          4.03874       -1.92721        1.13623
C          4.91358        0.24332        1.62985
C          5.24737       -1.25589        1.83933
C          5.20862       -1.63206        3.34752
C          6.61782       -1.66755        1.24839
C          6.27362       -1.00171        4.25110
C          6.80596       -1.54093       -0.26727
H          2.26385       -1.45474        2.33937
H          2.09533       -1.02036        0.64482
H          2.96116        1.13817        1.15096
H          3.12795        0.65215        2.83256
H          4.19543       -1.92224        0.04897
H          3.91254       -2.97811        1.43654
H          5.47191        0.90517        2.30592
H          5.19181        0.53346        0.60673
H          4.21749       -1.38083        3.75466
H          5.28755       -2.72969        3.41807
H          7.39894       -1.06902        1.74148
H          6.81749       -2.71289        1.53927
H          6.11284       -1.30673        5.29527
H          7.29066       -1.31141        3.97476
H          6.23861        0.09697        4.22383
H          7.83838       -1.80079       -0.54143
H          6.14226       -2.21456       -0.82661
H          6.62430       -0.51688       -0.62369
