21
1,2,4-TRIMETHYLBENZENE.gamout	Energy:    -349.7250656
C         -1.32684        1.73643       -0.11758
C         -2.22040        0.72490        0.22755
C          0.05827        1.60481        0.07999
C          0.53975        0.40546        0.64607
C         -0.37668       -0.60352        0.98765
C         -1.75530       -0.47341        0.79129
H         -3.29007        0.86699        0.05743
H         -1.71211        2.66033       -0.55527
H          0.00726       -1.52907        1.42590
C          0.98241        2.73484       -0.31412
H          0.41166        3.57352       -0.73379
H          1.55254        3.12017        0.54588
H          1.71589        2.42019       -1.07297
C          2.01100        0.15957        0.90166
H          2.64309        1.00226        0.60302
H          2.36185       -0.72790        0.35196
H          2.19801       -0.03013        1.97035
C         -2.71451       -1.57694        1.16972
H         -2.18564       -2.44031        1.59491
H         -3.28398       -1.92813        0.29481
H         -3.44733       -1.22974        1.91490
