10
1,2-PROPYLENE_OXIDE.gamout	Energy:    -192.8638438
C          0.70538       -1.29461        0.28649
C         -0.73836       -1.02781        0.19992
H         -2.58655       -1.66030       -0.71038
H         -1.28430       -2.87869       -0.76020
H         -2.15105       -2.54947        0.76928
C         -1.74601       -2.09288       -0.14726
O          0.15177       -0.60908       -0.83778
H         -1.12549       -0.19296        0.79849
H          1.33792       -0.68446        0.94002
H          1.07744       -2.30326        0.07546
