15
1,2-PROPANEDIAMINE.gamout	Energy:    -229.5401462
C          3.23575        2.11007        1.68924
C          1.74852        2.06385        2.08435
C          1.00281        0.90734        1.40444
N          1.15546        3.38381        1.82993
N          3.39975        2.57398        0.31053
H          3.65415        1.09538        1.76552
H          3.76924        2.74308        2.42147
H          1.71547        1.91153        3.17552
H         -0.05533        0.89466        1.70560
H          1.05349        1.01159        0.31082
H          1.44283       -0.06601        1.67376
H          0.96476        3.50207        0.83654
H          0.27273        3.49846        2.31992
H          4.30372        2.31790       -0.07308
H          3.32224        3.58647        0.26015
