10
1,2-ETHANEDITHIOL.gamout	Energy:    -875.7561896
S         -0.00506        1.26742        2.25755
C          1.41917        2.16069        1.51300
C          2.79411        1.55909        1.79908
S          3.11321       -0.08173        1.03284
H          0.19612        1.68204        3.53054
H          1.21872        2.16660        0.43260
H          1.39433        3.20729        1.85188
H          3.57956        2.25795        1.47453
H          2.92842        1.40103        2.87824
H          3.28247        0.36569       -0.23370
