11
1,2-DIIODOPROPANE.gamout	Energy:    -713.1735420
C          0.98947        0.05846        0.10292
C          0.56980       -1.11504       -0.74550
C          0.96944       -2.49294       -0.24915
I         -1.67129       -0.99636       -0.85559
I          3.19079        0.33448        0.07652
H          0.61083        1.01130       -0.27236
H          0.73477       -0.06723        1.15982
H          0.84685       -0.96191       -1.79371
H          0.61188       -2.66701        0.77525
H          2.06710       -2.58247       -0.25279
H          0.56035       -3.27673       -0.89782
