13
1,2-EPOXYBUTANE.gamout	Energy:    -232.1221250
C          1.81209        2.05903        1.01075
C          1.03234        0.92722        1.68881
C          3.28817        1.76034        0.89386
C          4.27091        2.22436        1.88512
O          4.15795        2.85830        0.61038
H          1.40993        2.23466       -0.00077
H          1.68883        3.00272        1.56392
H          1.40826        0.73675        2.70525
H         -0.03482        1.17893        1.76464
H          1.11407       -0.01153        1.11961
H          3.53816        0.85158        0.32943
H          5.19630        1.66160        2.04797
H          3.92956        2.82601        2.73499
