8
1,2-DICHLOROETHANE.gamout	Energy:    -998.5347998
C          2.38343        0.75342        0.82970
C          1.50841        1.85549        1.39025
Cl        -0.04189        1.13629        2.00086
Cl         3.93152        1.47356        0.21482
H          1.90504        0.24626       -0.01520
H          2.65295        0.01902        1.59673
H          1.24148        2.59153        0.62390
H          1.98533        2.36056        2.23721
