10
1,3-PROPYLENE_OXIDE.gamout	Energy:    -192.8608591
C          2.06586        2.06093        0.90261
C          0.52313        2.03260        0.94529
C          1.94954        0.52148        0.90609
O          0.50832        0.58947        0.94497
H          2.55201        2.49669        1.78414
H          2.50240        2.49643       -0.00464
H          0.00887        2.44477        0.06214
H          0.05866        2.44382        1.85608
H          2.35645        0.00939        1.79294
H          2.30804        0.00872       -0.00103
