14
1,3-CYCLOHEXADIENE.gamout	Energy:    -233.1049986
C         -0.13398       -1.42200       -0.05359
C         -1.25997       -0.68386       -0.09913
C         -1.20980        0.76943        0.09919
C         -0.03539        1.42776        0.05351
C          1.24621        0.68546       -0.24637
C          1.19584       -0.77007        0.24617
H         -0.17903       -2.50786       -0.16611
H         -2.22780       -1.16166       -0.26699
H         -2.14213        1.31319        0.26749
H         -0.00519        2.51394        0.16766
H          1.41149        0.70368       -1.34182
H          2.10924        1.20572        0.19572
H          1.35915       -0.79877        1.34173
H          2.02119       -1.34918       -0.19470
