26
1,3-DIPHENYLTRIAZENE.gamout	Energy:    -627.3060022
C          6.96691        1.75105       -0.58671
C          7.16588        0.41159       -0.23968
C          5.66213        2.24013       -0.73926
C         -2.50810       -0.74699       -0.30226
C         -2.00358       -1.99470        0.07673
C         -1.61564        0.30006       -0.55791
C          4.56309        1.40517       -0.54952
C          0.26302       -1.13963       -0.05952
N          1.63206       -1.38410        0.07428
C         -0.23767        0.11719       -0.44094
C         -0.62862       -2.19522        0.19898
C          6.07082       -0.43228       -0.04684
C          4.76226        0.05480       -0.20066
N          3.73038       -0.88253        0.01721
N          2.55815       -0.45967       -0.14618
H          7.82143        2.41287       -0.73744
H          8.17814        0.02172       -0.11803
H          5.50272        3.28597       -1.00920
H         -3.58350       -0.59219       -0.39734
H         -2.68427       -2.82324        0.28031
H         -1.99622        1.27917       -0.85469
H          3.54897        1.78424       -0.66725
H          1.96928       -2.30910        0.34327
H          0.45459        0.93246       -0.64079
H         -0.24013       -3.17219        0.49559
H          6.20400       -1.48034        0.22478
