13
1,3-PROPANEDIOL.gamout	Energy:    -269.2389392
C         -1.79992        4.80706       -0.94475
C         -0.42985        4.20393       -0.67018
C          0.68547        5.23978       -0.69400
H         -0.21802        3.42800       -1.42082
H         -0.44203        3.71041        0.31316
O         -2.76250        3.76152       -0.89593
H         -1.80787        5.29709       -1.93667
H         -2.03156        5.58389       -0.19158
H         -3.64137        4.11536       -1.06627
O          1.91351        4.57384       -0.42771
H          0.49406        6.02082        0.06573
H          0.72035        5.73912       -1.68061
H          2.63925        5.20621       -0.43594
