16
1,3-BUTANEDIOL.gamout	Energy:    -308.5019365
C         -2.34877       -1.23472        0.32174
C         -2.18919        0.14386       -0.30646
H         -0.93785        0.99828        1.23803
O          1.44663        1.11671        0.03954
H          2.29056        0.71419       -0.18998
H         -3.29321       -1.68976       -0.00572
H         -1.52684       -1.90168        0.02721
H         -2.36430       -1.15490        1.41857
C         -0.92424        0.88872        0.14253
O         -3.35890        0.88376        0.04638
H         -3.29697        1.77884       -0.30600
C          0.38130        0.23086       -0.28678
H         -0.93778        1.90660       -0.28156
H          0.36362        0.02979       -1.37482
H          0.51290       -0.73625        0.22883
H         -2.15603        0.02633       -1.40764
