22
1,4-DIMETHYLCYCLOHEXENE.gamout	Energy:    -312.8486180
C          3.70297        1.72468        1.79097
C          2.50950        1.06229        1.09035
C          1.16392        1.67068        1.52705
C          3.48467        1.92871        3.27541
C          2.26300        1.81434        3.82203
C          4.70709        2.26910        4.08565
C          1.00272        1.50180        3.05170
C          1.01910        3.13785        1.09632
H          4.61024        1.11632        1.63818
H          3.93450        2.70083        1.32580
H          2.62509        1.13268       -0.00228
H          2.50368       -0.01164        1.33845
H          0.36180        1.09821        1.03300
H          2.15568        1.95650        4.90218
H          4.46006        2.45697        5.13917
H          5.20938        3.16650        3.68579
H          5.44777        1.45249        4.04581
H          0.68115        0.46985        3.28281
H          0.18623        2.14769        3.41638
H          1.74514        3.78342        1.61108
H          1.17331        3.24969        0.01247
H          0.01431        3.51779        1.33344
