14
1,4-DICHLOROBUTANE.gamout	Energy:   -1077.0547739
C          1.97884        0.98633        1.28045
C          0.90870        1.80159        2.01644
C          0.93604        3.30394        1.78486
C          3.42222        1.38954        1.53707
Cl         0.70291        3.74840        0.02960
Cl         3.89140        1.24850        3.29580
H          1.84991       -0.07545        1.53707
H          1.82027        1.07276        0.19290
H         -0.08226        1.41220        1.74019
H          1.01810        1.65071        3.10301
H          0.12478        3.80244        2.32674
H          1.88696        3.75855        2.08678
H          4.11627        0.74030        0.99199
H          3.62648        2.42949        1.25612
