21
1,5-PENTANEDIAMINE.gamout	Energy:    -308.0540890
N         -3.82628        0.28894       -0.00427
N          3.82628        0.28901        0.00436
C          0.00001       -0.43960       -0.00002
C         -1.28287        0.39762       -0.00312
C          1.28287        0.39764        0.00301
C         -2.56509       -0.44714        0.00544
C          2.56510       -0.44710       -0.00538
H          0.00221       -1.10434       -0.88158
H         -0.00220       -1.10426        0.88159
H         -1.29267        1.05421       -0.89081
H         -1.28855        1.06606        0.87579
H          1.29262        1.05435        0.89062
H          1.28856        1.06597       -0.87599
H         -2.56515       -1.10215        0.89204
H         -2.56363       -1.12220       -0.86598
H          2.56524       -1.10218       -0.89192
H          2.56358       -1.12208        0.86610
H         -3.91427        0.87322       -0.83238
H         -3.91159        0.89977        0.80477
H          3.91419        0.87338        0.83241
H          3.91166        0.89973       -0.80475
