24
1,6-DIMETHYLNAPHTHALENE.gamout	Energy:    -463.9095542
C          5.54317        4.03727        1.16157
C          5.55614        5.54365        1.07514
C          4.30372        3.31365        1.14721
C          6.72848        3.32895        1.25579
C          4.31928        1.87984        1.23059
C          3.03638        3.95733        1.05259
C          6.74575        1.91442        1.33824
C          3.08612        1.16853        1.21547
C          5.56713        1.20287        1.32603
C          1.86386        3.23387        1.04087
C          1.86689        1.81225        1.12288
C          0.56211        1.05483        1.10666
H          6.58358        5.92772        1.09858
H          5.08568        5.90132        0.14523
H          5.00702        6.00297        1.91262
H          7.67546        3.87247        1.26714
H          2.99098        5.04399        0.98772
H          7.70183        1.39262        1.41155
H          3.11853        0.07823        1.27950
H          5.57433        0.11311        1.38913
H          0.90851        3.75869        0.96698
H         -0.08230        1.35686        1.94753
H         -0.00086        1.25489        0.18112
H          0.72457       -0.02853        1.17656
