25
1-AMINOHEPTANE.gamout	Energy:    -331.2887685
C         70.00615       10.03157       -0.00879
C         68.69414        9.24018       -0.00665
C         68.89010        7.72164        0.00024
C         69.80527       11.54937       -0.01192
C         67.57601        6.93256        0.00225
C         71.11629       12.33578       -0.02397
C         67.77178        5.41541        0.00887
N         70.86829       13.77649        0.01173
H         70.60287        9.74314        0.87390
H         70.60426        9.73621       -0.88827
H         68.09690        9.52706       -0.88949
H         68.09517        9.53538        0.87201
H         69.48698        7.43420        0.88337
H         69.48948        7.42617       -0.87860
H         69.20638       11.83605       -0.89471
H         69.22051       11.85787        0.86936
H         66.98157        7.22497       -0.87977
H         66.97993        7.23271        0.88049
H         71.70126       12.07278        0.87190
H         71.71927       12.01339       -0.89742
H         66.80784        4.88596        0.00999
H         68.33296        5.09113        0.89884
H         68.33501        5.08367       -0.87707
H         71.73082       14.31028        0.07145
H         70.37289       14.09207       -0.81892
