18
1-BROMONAPHTHALENE.gamout	Energy:   -2958.5190771
Br        -2.18253       -0.36160        0.00001
C         -0.50099        0.56764        0.00004
C         -0.52966        1.94553       -0.00055
C          0.68384        2.67631       -0.00024
C          1.89325        2.01808        0.00002
C          1.94748        0.59679        0.00046
C          3.18950       -0.09869       -0.00008
C          3.23628       -1.47560       -0.00028
C          2.03316       -2.22377       -0.00052
C          0.80999       -1.58667        0.00027
C          0.72432       -0.16624        0.00126
H         -1.48300        2.47271       -0.00105
H          0.64814        3.76691       -0.00037
H          2.82850        2.58047       -0.00017
H          4.11190        0.48545       -0.00020
H          4.19806       -1.99119       -0.00057
H          2.07349       -3.31438       -0.00106
H         -0.10817       -2.17168        0.00077
