12
1-BUTENE.gamout	Energy:    -157.0017652
C          1.32021        2.14964        1.65970
C          0.46045        2.88327        0.94691
C          1.98107        0.88157        1.19730
C          3.51454        0.95706        1.22556
H          1.58778        2.48513        2.66941
H          0.02285        3.79878        1.34830
H          0.16259        2.59228       -0.06412
H          1.65532        0.05094        1.84866
H          1.63279        0.63617        0.18179
H          3.96049        0.00150        0.91357
H          3.88228        1.74399        0.55091
H          3.88138        1.18494        2.23810
