16
1-CHLORO-2,4-DINITROBENZENE.gamout	Energy:   -1099.8954430
C          6.37131        1.89091       -0.68608
C          6.90021        0.65259       -0.33886
C          4.98432        2.09249       -0.74034
C          6.02706       -0.40156       -0.06410
C          4.64809       -0.24150       -0.12821
N          6.57569       -1.72246        0.29725
C          4.12969        1.01194       -0.45043
N          2.65571        1.12786       -0.46029
Cl         4.41812        3.65480       -1.23134
O          2.16533        2.17986       -0.09037
O          2.03155        0.13950       -0.81492
O          5.78105       -2.61777        0.53764
O          7.79222       -1.83406        0.33245
H          7.03187        2.72314       -0.92385
H          7.97526        0.49127       -0.28538
H          3.98030       -1.07671        0.07106
