33
1-DECANOL.gamout	Energy:    -468.9164185
C          3.92552        4.03362        3.38130
C          5.32375        3.64706        2.89147
C          5.38650        3.30868        1.39931
C          3.87564        4.39749        4.86813
C          6.78456        2.90452        0.92200
C          2.47693        4.76600        5.37029
C          6.85184        2.59327       -0.57580
C          2.43753        5.15024        6.85299
C          8.24160        2.17948       -1.03627
C          1.03770        5.50369        7.35853
O          8.20049        1.92299       -2.43603
H          3.22890        3.19967        3.18629
H          3.55232        4.88492        2.78561
H          5.68652        2.78336        3.47588
H          6.02464        4.47287        3.10544
H          5.03852        4.17772        0.81445
H          4.67707        2.49219        1.17938
H          4.56406        5.23961        5.05768
H          4.26307        3.55078        5.46150
H          7.49499        3.71484        1.16197
H          7.12092        2.02450        1.49775
H          1.79312        3.91650        5.19692
H          2.08057        5.60177        4.76721
H          6.14538        1.78584       -0.82820
H          6.53936        3.47457       -1.15916
H          3.11606        6.00368        7.02144
H          2.84534        4.31726        7.45060
H          8.96649        2.98375       -0.80933
H          8.56704        1.27726       -0.48495
H          1.05221        5.77894        8.42316
H          0.61525        6.35287        6.79908
H          0.34743        4.65378        7.24198
H          9.07250        1.66055       -2.74774
