19
1-ETHYLCYCLOPENTENE.gamout	Energy:    -273.5821710
C          1.05340        3.33437        1.02618
C          1.63174        2.25020        1.95122
C          3.10126        2.00094        1.75875
C          4.15402        3.03990        2.10807
C          3.68037        0.86927        1.32623
C          5.45399        2.47140        1.48918
C          5.18867        0.95495        1.30503
H          1.54791        4.30427        1.18143
H         -0.02123        3.47385        1.21507
H          1.18218        3.05621       -0.03005
H          1.45323        2.54839        3.00016
H          1.08141        1.30945        1.79752
H          4.22883        3.13946        3.20719
H          3.91231        4.04422        1.72744
H          3.13095       -0.03671        1.06035
H          6.34440        2.67942        2.09839
H          5.61915        2.93415        0.50487
H          5.62995        0.56028        0.37624
H          5.62455        0.36025        2.12888
