8
1-FLUORO-1,2,2-TRICHLOROETHANE.gamout	Energy:   -1557.0675922
C         17.97757       20.03249       -0.01619
C         19.28339       20.83015       -0.02062
Cl        16.53288       21.07600       -0.07059
Cl        18.00321       18.87327       -1.39471
F         19.34504       21.68283       -1.07090
Cl        19.46164       21.75963        1.51060
H         17.91935       19.43367        0.89816
H         20.13696       20.14090       -0.06738
