21
1-HEXANOL.gamout	Energy:    -311.8818135
C          4.95411        2.12179        0.80597
C          3.64922        1.61821        1.43181
C          2.41666        1.89489        0.56573
C          6.19224        1.86064        1.66994
C          1.12303        1.38966        1.18762
C          7.49208        2.36799        1.04178
O          0.04526        1.70481        0.31239
H          5.09063        1.64520       -0.18015
H          4.86857        3.20487        0.61119
H          3.73378        0.53393        1.62081
H          3.51827        2.09174        2.42028
H          2.31715        2.97779        0.38749
H          2.53542        1.42479       -0.42382
H          6.05110        2.33584        2.65537
H          6.27546        0.77791        1.86399
H          1.18614        0.29750        1.35107
H          0.97374        1.86406        2.17562
H          7.67660        1.88435        0.07012
H          7.45166        3.45469        0.86954
H          8.35784        2.16321        1.68808
H         -0.78466        1.39388        0.68797
