21
1-HEPTENE.gamout	Energy:    -274.7751957
C          3.34548        0.81210        1.30409
C          4.55830        1.73845        1.42990
C          5.89680        0.99913        1.53774
C          2.01288        1.56028        1.19033
C          7.09211        1.91929        1.65802
C          0.79924        0.63883        1.05938
C          8.36324        1.52142        1.75953
H          3.31090        0.13564        2.17633
H          3.47482        0.16140        0.42144
H          4.43184        2.38910        2.31240
H          4.59200        2.41415        0.55763
H          6.02510        0.34667        0.65656
H          5.87056        0.31798        2.40623
H          2.05617        2.23666        0.31972
H          1.88966        2.21190        2.07191
H          6.87786        2.99428        1.65936
H         -0.13461        1.21399        0.97702
H          0.70597       -0.02592        1.93236
H          0.87864        0.00153        0.16482
H          8.62796        0.46042        1.76213
H          9.18288        2.23705        1.84334
