24
1-HEPTANOL.gamout	Energy:    -351.1404542
C          3.12544       -0.52845        0.00000
C          1.88477        0.35266        0.00000
C          0.57921       -0.44717        0.00000
C         -0.67310        0.43551        0.00000
C         -1.98429       -0.35521       -0.00000
C         -3.23528        0.52979        0.00000
C         -4.54563       -0.25973       -0.00000
O          4.27662        0.30860       -0.00000
H          3.12062       -1.18374        0.89123
H          3.12061       -1.18374       -0.89122
H          1.92618        1.01094        0.88287
H          1.92618        1.01093       -0.88287
H          0.55258       -1.11067       -0.88192
H          0.55258       -1.11067        0.88192
H         -0.64814        1.09961        0.88122
H         -0.64814        1.09961       -0.88122
H         -2.00972       -1.01954       -0.88160
H         -2.00972       -1.01954        0.88160
H         -3.20552        1.19380        0.88044
H         -3.20552        1.19380       -0.88044
H         -4.62046       -0.90602       -0.88827
H         -4.62046       -0.90603        0.88826
H         -5.41742        0.41070        0.00000
H          5.07498       -0.22894       -0.00000
