14
1-IODOBUTANE.gamout	Energy:    -455.3304067
C          0.88101        0.02412       -0.00012
C          2.23665        0.74907        0.00014
C          3.40508       -0.22354       -0.00009
C         -0.30408        0.99369        0.00011
I          5.34479        0.80977        0.00020
H          0.81752       -0.63480       -0.88188
H          0.81744       -0.63529        0.88127
H          2.30296        1.40398        0.88248
H          2.30301        1.40447       -0.88185
H          3.42786       -0.85427       -0.89564
H          3.42781       -0.85475        0.89514
H         -1.26076        0.45247       -0.00009
H         -0.28476        1.64258        0.88884
H         -0.28468        1.64309       -0.88824
