18
1-METHYL-1-ETHYLCYCLOPROPANE.gamout	Energy:    -235.5137685
C          2.63387       -1.31929        1.70601
C          1.75110       -0.27077        1.02046
C          1.18045        0.78861        1.95854
C          0.21783        0.27368        3.01545
C          2.07176        1.95376        2.32115
C          0.90818        2.15462        1.37494
H          3.04859       -2.02443        0.97122
H          3.47528       -0.84130        2.22985
H          2.06807       -1.90632        2.44369
H          0.91593       -0.77361        0.50235
H          2.33588        0.23363        0.23559
H          0.70451       -0.43670        3.70059
H         -0.18191        1.09624        3.62506
H         -0.63611       -0.24201        2.54779
H          1.99680        2.37082        3.32694
H          3.08043        1.98253        1.90414
H          1.12823        2.31967        0.31847
H          0.03932        2.70750        1.73712
