20
1-METHYLINDENE.gamout	Energy:    -386.5621618
C          2.20627        0.73718        4.70474
C          1.98500        2.07151        3.96992
C          3.21930        2.62886        3.28345
C          0.99628        1.98877        2.82367
C          2.93659        2.82978        1.91234
C          4.47222        2.94545        3.79883
C          1.54915        2.41780        1.66905
C          3.91235        3.34521        1.05301
C          5.45104        3.46223        2.93545
C          5.17177        3.66031        1.57717
H          2.95580        0.84951        5.50088
H          1.27122        0.38802        5.16679
H          2.55785       -0.03577        4.00693
H          1.61594        2.80920        4.70829
H         -0.02332        1.62129        2.94405
H          4.70094        2.79505        4.85629
H          1.05279        2.46143        0.69958
H          3.69744        3.50298       -0.00585
H          6.43892        3.71410        3.32557
H          5.94536        4.06434        0.92134
