24
1-METHYL-1-ETHYLCYCLOPENTANE.gamout	Energy:    -314.0583972
C          1.73691        1.77856        1.27906
C          0.79163        0.95287        2.15820
C          2.98408        2.35741        1.97831
C          2.58109        3.32620        3.10783
C          3.93934        1.25971        2.51304
C          3.90241        3.08361        0.96236
C          5.33086        1.92592        2.61418
C          5.30822        3.11026        1.60361
H          1.17188        2.61001        0.82488
H          2.07852        1.15014        0.44012
H          1.31078        0.09920        2.61859
H          0.35103        1.55269        2.96744
H         -0.03885        0.55088        1.56000
H          2.03991        2.80759        3.91115
H          3.45689        3.80782        3.56415
H          1.92950        4.12426        2.72058
H          3.97205        0.43308        1.78509
H          3.60709        0.83099        3.46882
H          3.53111        4.08659        0.70465
H          3.92923        2.50247        0.02709
H          6.13561        1.21055        2.39581
H          5.51202        2.29261        3.63443
H          5.48286        4.06379        2.12201
H          6.09835        3.02184        0.84584
