22
1-METHYLCYCLOHEXANOL.gamout	Energy:    -349.9512782
C         -3.85071        1.00969        1.10830
C         -5.08850        1.89949        1.29150
C         -4.09613       -0.09001        0.06619
C         -5.59369        2.51176       -0.03436
C         -5.80755        1.39459       -1.07916
C         -6.87801        3.30780        0.18583
O         -4.64474        3.47554       -0.52490
C         -4.57228        0.50290       -1.26732
H         -3.56578        0.56813        2.07492
H         -2.98801        1.62487        0.79687
H         -5.90216        1.29552        1.72643
H         -4.88097        2.71675        1.99733
H         -3.18584       -0.69031       -0.08351
H         -4.86755       -0.78061        0.44850
H         -6.65286        0.77034       -0.74540
H         -6.10371        1.85828       -2.03142
H         -7.67851        2.66101        0.57039
H         -6.70138        4.11674        0.90751
H         -7.21349        3.75792       -0.75841
H         -3.79698        3.05096       -0.69345
H         -4.79909       -0.29817       -1.98635
H         -3.75362        1.08716       -1.72382
