24
1-METHYL-4-PROPYLBENZENE.gamout	Energy:    -388.9824627
C          1.88616        4.79164        1.51815
C          0.87671        5.90119        1.81582
C          3.17271        4.90498        2.35736
C          4.17681        3.81218        2.06876
C          5.13269        3.95209        1.05098
C          6.03834        2.92867        0.76340
C          6.02514        1.72249        1.48058
C          6.98608        0.60529        1.15174
C          5.07297        1.58483        2.50229
C          4.16787        2.60857        2.79021
H          1.42711        3.80706        1.70324
H          2.15377        4.80635        0.44912
H          0.57031        5.88701        2.87350
H          1.30428        6.89426        1.60715
H         -0.03009        5.79189        1.20340
H          3.63388        5.88895        2.17214
H          2.90259        4.88370        3.42586
H          5.17503        4.88214        0.47918
H          6.77582        3.07148       -0.03005
H          7.22675        0.00724        2.04208
H          6.55618       -0.08077        0.40297
H          7.92730        0.99263        0.73659
H          5.04446        0.66258        3.08756
H          3.44386        2.47392        3.59724
