25
1-N-PROPYLCYCLOHEXENE.gamout	Energy:    -352.1044799
C          0.87623        1.77601        5.03772
C          0.90322        3.30019        4.89217
C          2.23821        1.17756        4.66438
C          1.22239        3.70373        3.44791
C          2.37168        2.92046        2.84021
C          2.81709        1.78901        3.41168
C          2.91147        3.48824        1.54192
C          4.18627        2.87068        0.95202
C          5.46823        3.21503        1.71777
H          0.10211        1.36429        4.36832
H          0.59842        1.48418        6.06187
H          1.67510        3.71359        5.56314
H         -0.05581        3.74020        5.20546
H          2.15182        0.08645        4.53166
H          2.94938        1.31284        5.50080
H          1.45263        4.78122        3.39956
H          0.32618        3.57126        2.81273
H          3.65154        1.25105        2.95713
H          2.10076        3.42422        0.79236
H          3.07577        4.57252        1.68156
H          4.07190        1.77739        0.87736
H          4.28755        3.22942       -0.08413
H          5.63389        4.30369        1.72901
H          5.42511        2.87855        2.76283
H          6.34730        2.74903        1.24843
