28
1-NONANAL.gamout	Energy:    -428.4522161
C          4.26076        2.40189        2.15535
C          3.27892        2.88476        3.22685
C          3.20959        1.96968        4.45276
C          4.32522        3.32079        0.93160
C          2.22738        2.44993        5.52500
C          5.31045        2.82691       -0.14287
C          2.15887        1.53347        6.75084
C          5.37891        3.76517       -1.32084
C          1.17684        2.01301        7.82128
O          5.12180        3.46676       -2.46329
H          3.97816        1.38545        1.83276
H          5.26855        2.31194        2.59670
H          2.27270        2.97556        2.78236
H          3.56135        3.90261        3.54713
H          4.21644        1.87879        4.89639
H          2.92820        0.95190        4.13128
H          4.61026        4.33685        1.25346
H          3.32054        3.40921        0.48624
H          1.22054        2.54027        5.08086
H          2.50823        3.46817        5.84640
H          5.04140        1.82407       -0.50383
H          6.32391        2.77402        0.29568
H          3.16710        1.44376        7.18971
H          1.88108        0.51699        6.42430
H          5.68409        4.81483       -1.07181
H          1.45065        3.01288        8.19220
H          0.15332        2.07733        7.42053
H          1.15714        1.32966        8.68242
