37
1-OCTYLPYRROLIDIN-2-ONE.gamout	Energy:    -600.3451100
O          1.78749       -2.41124       -3.32494
N          1.65862       -0.99876       -1.51279
C          1.20212       -2.00208       -0.56175
C          2.09254        0.33779       -1.12420
C         -0.32019       -2.19250       -0.53885
C          2.29599        1.05744       -2.47415
C         -1.11248       -0.97182       -0.06230
C          2.57928       -0.08402       -3.46350
C         -2.62857       -1.19056       -0.06787
C          1.95920       -1.31791       -2.80950
C         -3.42568        0.02558        0.41214
C         -4.94253       -0.18493        0.39679
C         -5.73817        1.03302        0.87680
C         -7.25343        0.82031        0.85887
H          1.67737       -2.95599       -0.83124
H          1.56575       -1.71322        0.43636
H          1.34029        0.83015       -0.49269
H          3.03104        0.28721       -0.54138
H         -0.64589       -2.48141       -1.54978
H         -0.54240       -3.05172        0.11599
H          3.09912        1.80325       -2.42393
H          1.37073        1.58008       -2.75496
H         -0.78701       -0.69791        0.95704
H         -0.87678       -0.10713       -0.70443
H          3.65649       -0.28207       -3.58495
H          2.16362        0.06818       -4.46697
H         -2.87447       -2.06068        0.56493
H         -2.94908       -1.45820       -1.08916
H         -3.17318        0.89614       -0.21823
H         -3.10500        0.29035        1.43484
H         -5.19588       -1.05604        1.02608
H         -5.26158       -0.44847       -0.62671
H         -5.41504        1.29431        1.89877
H         -5.48096        1.90167        0.24720
H         -7.78837        1.71536        1.20800
H         -7.60922        0.59180       -0.15757
H         -7.54398       -0.01908        1.50939
