24
1-OCTENE.gamout	Energy:    -314.0339569
C          2.97550        2.44776        2.41238
C          2.90754        2.40889        0.88374
C          3.79872        3.45119        0.20216
C          2.08193        1.40614        3.09450
C          3.72868        3.41577       -1.32810
C          2.14533        1.44492        4.60650
C          4.61848        4.45970       -2.00524
C          1.46621        0.64598        5.43441
H          2.69123        3.45387        2.76552
H          4.01969        2.29548        2.73616
H          1.86177        2.55996        0.56300
H          3.19001        1.40150        0.53160
H          4.84495        3.30075        0.52168
H          3.51590        4.45827        0.55501
H          1.03773        1.55386        2.76820
H          2.36076        0.39860        2.74090
H          2.68171        3.56477       -1.64270
H          4.00924        2.40820       -1.67856
H          2.81023        2.19914        5.04353
H          4.33737        5.47933       -1.69941
H          4.54048        4.40504       -3.10076
H          5.67638        4.31308       -1.73700
H          1.56488        0.73520        6.51748
H          0.78590       -0.12550        5.06259
