15
1-PENTENE.gamout	Energy:    -196.2577009
C          0.15298        6.37626        0.12727
C          1.57045        5.79768        0.20631
C          1.62119        4.38692        0.75202
C          0.10468        7.80352       -0.41849
C          2.72737        3.65853        0.92709
H         -0.46800        5.71686       -0.50208
H         -0.29798        6.34934        1.13350
H          2.03027        5.82333       -0.79717
H          2.19654        6.45608        0.83357
H          0.65772        3.94031        1.02379
H          0.51800        7.85664       -1.43791
H          0.69081        8.48980        0.21259
H         -0.92695        8.18213       -0.45579
H          3.71834        4.04721        0.67630
H          2.68186        2.64551        1.32954
