12
1-PROPANETHIOL.gamout	Energy:    -516.9947494
C          3.35150        1.06527        2.10532
C          2.06607        1.86514        1.89895
C          0.88651        1.30070        2.69711
S          4.82273        1.73733        1.22683
H          3.21340        0.01275        1.81830
H          3.64469        1.07466        3.16586
H          1.81548        1.87269        0.82573
H          2.24748        2.91317        2.18200
H          0.66954        0.25960        2.41180
H          1.09226        1.31463        3.77868
H         -0.02393        1.89194        2.52253
H          4.34390        1.59917       -0.03202
