29
2,2,3-TRIMETHYLHEXANE.gamout	Energy:    -354.5154927
C          4.45789        1.75640        2.15388
C          5.55677        1.82493        3.27480
C          3.08951        2.37354        2.55683
C          4.91976        2.35080        0.81187
C          4.99800        1.28705        4.60768
C          6.06052        3.26592        3.48921
C          6.75033        0.92962        2.88260
C          2.01709        1.35241        2.96031
C          0.67385        1.99431        3.31353
H          4.28670        0.67995        1.98050
H          3.21840        3.10464        3.36981
H          2.69506        2.95662        1.70951
H          5.01720        3.44473        0.86993
H          5.88034        1.94299        0.47245
H          4.17635        2.13337        0.03162
H          4.18976        1.91512        5.00532
H          5.79233        1.25634        5.36733
H          4.61114        0.26403        4.49320
H          6.58787        3.64876        2.60498
H          6.76534        3.30228        4.33296
H          5.23788        3.95809        3.71777
H          7.23915        1.26121        1.95716
H          6.42926       -0.11327        2.74019
H          7.51435        0.93615        3.67415
H          1.87920        0.64132        2.12871
H          2.37255        0.75362        3.81185
H          0.27228        2.56724        2.46353
H          0.77753        2.68921        4.16125
H         -0.07300        1.23658        3.59066
