32
2,2,6-TRIMETHYLHEPTANE.gamout	Energy:    -393.7814921
C         -0.09522       53.03935        0.88674
C          1.12111       53.04514       -0.04804
C          1.69153       54.46851       -0.19224
C          2.17791       52.03657        0.42568
C          2.77872       54.62916       -1.26088
C          3.24572       56.08042       -1.41315
C          4.33941       56.36620       -2.47616
C          5.62671       55.58063       -2.16221
C          4.65352       57.87443       -2.43927
C          3.83984       55.99698       -3.88673
H         -0.53625       52.03468        0.96449
H          0.18941       53.35734        1.90267
H         -0.87807       53.72474        0.52917
H          0.77624       52.72732       -1.04899
H          0.86231       55.15674       -0.42708
H          2.08782       54.79568        0.78588
H          3.02384       51.96888       -0.27146
H          1.74680       51.02941        0.52150
H          2.57568       52.32536        1.41202
H          3.63816       53.99167       -1.00743
H          2.38683       54.25562       -2.22093
H          2.37145       56.71187       -1.64642
H          3.61786       56.43267       -0.43571
H          6.42630       55.84469       -2.86994
H          5.47155       54.49532       -2.23333
H          5.99147       55.80336       -1.14797
H          5.42339       58.13696       -3.18003
H          3.75625       58.47124       -2.66113
H          5.02324       58.17870       -1.44840
H          2.90814       56.53094       -4.12675
H          4.58724       56.26755       -4.64691
H          3.64691       54.91983       -3.98389
