29
2,2,4,4-TETRAMETHYLPENTANE.gamout	Energy:    -354.5143282
C          3.31550        2.08717        1.67738
C          1.81141        1.90219        2.05138
C          4.37112        2.82587        2.55915
C          1.58886        1.37469        3.48116
C          1.25087        0.85478        1.06314
C          1.00377        3.20323        1.85710
C          3.90373        4.20776        3.05302
C          5.60775        3.03657        1.65589
C          4.81329        1.97318        3.76697
H          3.31974        2.57929        0.69088
H          3.72880        1.08141        1.49666
H          1.86564        2.11468        4.24268
H          2.16713        0.45858        3.66661
H          0.52657        1.13334        3.63283
H          1.74382       -0.11975        1.19454
H          1.40204        1.17070        0.02013
H          0.17128        0.71040        1.21573
H         -0.06965        3.00915        1.99980
H          1.13721        3.60279        0.84079
H          1.28970        3.98776        2.56616
H          3.08981        4.13119        3.78486
H          4.73485        4.73590        3.54288
H          3.55725        4.83569        2.21992
H          5.97340        2.08139        1.25048
H          6.43147        3.49885        2.21953
H          5.36933        3.69413        0.80718
H          4.01025        1.83003        4.49805
H          5.64981        2.45952        4.29028
H          5.15713        0.97984        3.44265
