32
2,2,5-TRIMETHYLHEPTANE.gamout	Energy:    -393.7773804
C         -0.14430       53.33589       -0.55801
C          1.34424       53.10755       -0.28673
C          2.17769       54.36156        0.04347
C          1.67895       55.10767        1.30954
C          3.65877       53.98061        0.17959
C          0.76645       56.30409        1.00971
C          0.18143       57.07823        2.21884
C         -0.64078       58.25864        1.66524
C         -0.74713       56.17118        3.04891
C          1.30019       57.63404        3.11983
H         -0.63514       52.39360       -0.84092
H         -0.66873       53.72540        0.32587
H         -0.29396       54.05132       -1.38118
H          1.79229       52.62043       -1.16846
H          1.45843       52.38968        0.54463
H          2.09222       55.05277       -0.81422
H          1.16988       54.38837        1.97095
H          2.55217       55.46535        1.87474
H          4.28567       54.87120        0.33307
H          4.02624       53.46029       -0.71704
H          3.81266       53.31105        1.04096
H          1.33711       57.01748        0.39058
H         -0.07736       55.97749        0.38302
H         -1.09736       58.84063        2.47967
H         -0.00712       58.94006        1.07797
H         -1.45182       57.90584        1.01032
H         -1.22390       56.73936        3.86140
H         -0.20189       55.33592        3.51024
H         -1.54762       55.74661        2.42424
H          1.99854       58.26048        2.54429
H          0.87604       58.25585        3.92202
H          1.88098       56.83299        3.59773
