23
2,2,3-TRIMETHYLBUTANE.gamout	Energy:    -276.0019224
C          3.26544        1.87373        2.39732
C          1.72348        2.05191        2.16727
C          1.12014        2.88910        3.31502
C          1.41613        2.74697        0.82631
C          1.03767        0.66870        2.18399
C          4.04178        3.19486        2.52612
C          3.95621        0.97848        1.35491
H          3.35225        1.35721        3.37025
H          1.37356        2.46007        4.29651
H          0.02384        2.91595        3.23508
H          1.47210        3.92891        3.29882
H          1.79074        2.16766       -0.02865
H          0.32957        2.85925        0.69652
H          1.85822        3.75164        0.77473
H          1.29650        0.11145        3.09696
H          1.32261        0.05490        1.31957
H         -0.05582        0.78139        2.15823
H          4.04626        3.75755        1.58056
H          3.63691        3.84896        3.30841
H          5.09044        2.98864        2.78464
H          5.01043        0.82940        1.62899
H          3.94331        1.43838        0.35560
H          3.49528       -0.01431        1.27773
