21
2,2-DIMETHYL-1-BUTANOL.gamout	Energy:    -311.8804931
C         -0.00336        1.26264       -0.95395
C         -0.02557       -0.00002       -0.07181
C          1.21392        0.00001        0.84342
O          2.40352       -0.00000        0.06240
C         -1.25874       -0.00000        0.87117
C         -2.63714        0.00001        0.20365
C         -0.00335       -1.26266       -0.95396
H          0.89835        1.28101       -1.57865
H         -0.87666        1.29991       -1.61896
H         -0.00746        2.17503       -0.33791
H          1.18298        0.89308        1.49415
H          1.18301       -0.89303        1.49420
H          3.17332        0.00002        0.63933
H         -1.18692       -0.87972        1.53249
H         -1.18690        0.87974        1.53245
H         -2.78952        0.88880       -0.42430
H         -2.78954       -0.88881       -0.42427
H         -3.42658        0.00003        0.96853
H          0.89835       -1.28102       -1.57867
H         -0.00744       -2.17506       -0.33795
H         -0.87665       -1.29992       -1.61896
