15
2,2-DINITROPROPANE.gamout	Energy:    -527.5213561
C          1.02018        0.06176        0.05246
C          2.53040       -0.07750        0.10826
C          3.03472       -1.38964        0.67984
N          3.07720        0.15315       -1.32090
O          2.92583        1.27000       -1.77577
O          3.56486       -0.79935       -1.89519
N          3.16369        1.06973        0.93153
O          2.42376        1.73636        1.62632
O          4.37179        1.17838        0.85281
H          0.73045        1.04116       -0.34250
H          0.60460       -0.05471        1.05963
H          0.61509       -0.72786       -0.59438
H          2.68115       -1.48379        1.71529
H          4.12878       -1.42910        0.66277
H          2.63637       -2.22288        0.09018
