26
2,3,4-TRIMETHYLPENTANE.gamout	Energy:    -315.2570485
C          0.54920        4.15690        0.85095
C          1.52230        3.01467        0.42029
C          1.38311        2.55720       -1.06041
C          1.51715        1.82143        1.38780
C          1.24042        5.12446        1.82553
C         -0.78522        3.67891        1.44697
C          1.83517        3.64649       -2.04488
C         -0.00277        2.02076       -1.44953
H          0.30815        4.74001       -0.05183
H          2.53559        3.44672        0.48022
H          2.09264        1.71810       -1.17072
H          0.57778        1.25221        1.34894
H          2.33419        1.12630        1.14578
H          1.66068        2.14693        2.42776
H          0.56461        5.94073        2.12014
H          1.55405        4.60706        2.74565
H          2.13613        5.57246        1.37156
H         -1.46194        4.53365        1.59295
H         -1.30097        2.95486        0.80469
H         -0.64113        3.20848        2.43072
H          1.86265        3.25619       -3.07270
H          1.14947        4.50717       -2.04302
H          2.84087        4.01736       -1.79773
H         -0.76040        2.81804       -1.44432
H          0.02393        1.60512       -2.46719
H         -0.34135        1.22163       -0.77638
