15
2,3,4,5,6-PENTAFLUOROTOLUENE.gamout	Energy:    -766.8557098
C          6.35550        1.87123       -0.67365
C          7.25700        3.03780       -0.98303
C          6.84645        0.60633       -0.33607
C          4.96325        2.00621       -0.71155
F          8.17018        0.39768       -0.27866
C          6.00609       -0.47238       -0.04999
F          4.43202        3.19624       -1.02898
C          4.09532        0.95144       -0.43187
F          6.51644       -1.66270        0.26770
C          4.62275       -0.29816       -0.09839
F          2.77424        1.12548       -0.48029
F          3.80884       -1.31706        0.17181
H          8.30948        2.74798       -0.90186
H          7.07385        3.41247       -2.00059
H          7.06711        3.86990       -0.28959
