29
2,3-DIMETHYLHEPTANE.gamout	Energy:    -354.5191041
C          2.18575        1.78528        0.18653
C          2.14343        0.31863       -0.27457
C          3.42200       -0.39677        0.19175
C          0.84980       -0.41021        0.18862
C         -0.42131        0.25940       -0.37435
C         -1.74651       -0.23743        0.21571
C         -2.96197        0.53695       -0.30737
C         -4.29007        0.06968        0.29109
C          0.87378       -1.90731       -0.16027
H          3.14272        2.25074       -0.08976
H          1.38808        2.39411       -0.25686
H          2.09145        1.84982        1.28257
H          2.14115        0.30906       -1.38039
H          3.42866       -0.51466        1.28763
H          3.53464       -1.39181       -0.25643
H          4.31141        0.18868       -0.08151
H          0.81315       -0.32066        1.29119
H         -0.37315        1.34394       -0.20353
H         -0.43563        0.12654       -1.47121
H         -1.89235       -1.30729       -0.00036
H         -1.70782       -0.14985        1.31594
H         -2.82174        1.61106       -0.09935
H         -2.99975        0.44445       -1.40604
H         -4.47373       -0.99339        0.07051
H         -4.29438        0.18694        1.38591
H         -5.13629        0.64557       -0.11055
H          1.69374       -2.43633        0.34063
H         -0.05740       -2.40341        0.14089
H          0.99151       -2.05140       -1.24665
