21
2,3-DIMETHYL-2-PENTENE.gamout	Energy:    -274.7833892
C          3.58111        3.03676        2.09315
C          2.98570        1.91264        2.55449
C          2.10395        1.02615        1.68777
C          3.10277        1.41045        3.97634
C          3.42645        3.54222        0.67572
C          4.47042        3.93464        2.92302
C          0.61179        1.39542        1.75184
H          2.43368        1.03992        0.64029
H          2.22278       -0.01727        2.02382
H          3.57736        2.11816        4.66326
H          3.67895        0.46954        4.00834
H          2.10592        1.17538        4.38435
H          4.40600        3.58593        0.16895
H          3.03648        4.57423        0.68000
H          2.75469        2.93959        0.05689
H          4.65036        3.57063        3.93903
H          4.03940        4.94807        2.99835
H          5.45266        4.05359        2.43466
H          0.23856        1.38466        2.78679
H          0.44180        2.40433        1.34887
H          0.00385        0.68631        1.16955
