9
2,3-DICHLOROPROPENE.gamout	Energy:   -1036.5664362
C         -0.09577        0.01208        0.00000
C          1.10374        0.58652       -0.00001
C          2.46203       -0.05686       -0.00011
Cl         1.26188        2.34833       -0.00010
Cl         2.41532       -1.86136        0.00000
H         -1.01017        0.60323        0.00009
H         -0.17436       -1.07444        0.00008
H          3.02824        0.24762       -0.89013
H          3.02844        0.24773        0.88974
