15
2,3-DIHYDROXYBUTANOATE-1.gamout	Energy:    -457.0908953
O          1.78270        1.12976        0.56487
O         -0.33001       -1.86872        0.72021
O         -0.82521        1.62271        0.12589
O         -2.05929       -0.23335       -0.27613
C          1.43081       -0.21938        0.29239
C          0.02006       -0.50364        0.85326
C          1.55618       -0.54920       -1.19635
C         -1.06347        0.38635        0.16674
H          2.14221       -0.85459        0.85004
H          0.04461       -0.22212        1.92260
H          1.29922       -1.60391       -1.37498
H          2.58831       -0.36712       -1.53063
H          0.88033        0.08297       -1.79101
H          0.94285        1.63418        0.42314
H         -1.20051       -1.80433        0.26707
