24
2,3-DIMETHYL-3-PENTANOL.gamout	Energy:    -351.1418499
C          2.30308       -0.79398        0.09814
C          1.19335        0.18304        0.51617
C          1.58877        1.61384        0.11494
C         -0.21892       -0.23780       -0.01851
C         -1.30305        0.74241        0.49646
C         -2.74452        0.41529        0.09700
O         -0.22208       -0.25239       -1.45682
C         -0.55074       -1.67723        0.38657
H          3.28154       -0.42420        0.43593
H          2.16723       -1.79233        0.53252
H          2.33698       -0.90041       -0.99549
H          1.11871        0.15738        1.61746
H          1.62199        1.73049       -0.98009
H          0.90810        2.37406        0.51881
H          2.59464        1.84848        0.48989
H         -1.22246        0.80532        1.59394
H         -1.06102        1.74776        0.11997
H         -3.12112       -0.48582        0.59966
H         -3.41303        1.24399        0.36940
H         -2.82475        0.25496       -0.98706
H         -0.14213        0.64860       -1.78958
H         -0.53022       -1.78783        1.48018
H         -1.54640       -1.95889        0.02603
H          0.16501       -2.38104       -0.05174
