16
2,3-HEXADIENE.gamout	Energy:    -234.2836221
C          1.11626       -0.26410       -0.18749
C          2.51030        0.24494        0.09168
C          2.82857        1.13026        1.00766
C          3.14213        2.01243        1.92835
C          3.53594        1.68898        3.35400
C          4.95694        2.15586        3.70157
H          1.06503       -1.35711       -0.05444
H          0.82532       -0.05122       -1.22914
H          0.38016        0.20170        0.48080
H          3.31544       -0.16590       -0.53166
H          3.14139        3.07631        1.65393
H          3.44435        0.60541        3.51818
H          2.82075        2.17662        4.03907
H          5.70169        1.65115        3.06861
H          5.19482        1.93807        4.75348
H          5.06732        3.24073        3.54869
