24
2,3-DIMETHYLNAPHTHALENE.gamout	Energy:    -463.9097138
C          5.82435        3.18459        1.19117
C          7.11900        3.93978        1.01701
C          4.61042        3.82468        1.02995
C          5.84069        1.78574        1.52243
C          3.36717        3.15136        1.18082
C          7.15178        1.06301        1.71027
C          4.64205        1.11417        1.66873
C          3.38371        1.75620        1.50883
C          2.11386        3.80559        1.02216
C          2.14639        1.07092        1.66198
C          0.93026        3.11403        1.17862
C          0.94673        1.73315        1.50216
H          7.73368        3.90529        1.93067
H          7.73244        3.51161        0.20810
H          6.93165        4.99343        0.77558
H          4.59486        4.88850        0.78106
H          6.98811        0.00608        1.95411
H          7.77478        1.11087        0.80287
H          7.74678        1.50881        2.52360
H          4.65111        0.05007        1.91678
H          2.10111        4.86945        0.77538
H          2.15947        0.00677        1.90745
H         -0.02394        3.62966        1.05595
H          0.00519        1.19426        1.62274
