18
2,3-DIMETHYL-2-BUTENE.gamout	Energy:    -235.5258594
C          1.94740        2.20351        2.01148
C          3.20830        2.11944        1.52534
C          4.18777        3.27199        1.49442
C          3.81372        0.86039        0.94560
C          0.96781        1.05107        2.04208
C          1.34209        3.46250        2.59149
H          4.51151        3.47174        0.45849
H          3.79808        4.20748        1.90623
H          5.10077        3.01287        2.05767
H          3.14070       -0.00176        0.93872
H          4.14257        1.03601       -0.09309
H          4.71792        0.57414        1.50989
H          0.64414        0.85087        3.07794
H          0.05478        1.31058        1.47906
H          1.35725        0.11570        1.62973
H          1.01194        3.28619        3.62964
H          2.01563        4.32422        2.59990
H          0.43870        3.74981        2.02641
