13
2,3-PENTADIENE.gamout	Energy:    -195.0250669
C          2.09089        2.96216        1.97585
C          0.82958        2.42170        2.60523
C          3.08481        2.23775        1.51639
C          4.08027        1.51608        1.05605
C          5.28370        1.07265        1.85244
H          2.17173        4.05440        1.89833
H          0.70232        2.81277        3.62767
H         -0.05843        2.72938        2.02917
H          0.84669        1.32505        2.65389
H          4.04494        1.20225        0.00447
H          5.35207       -0.02706        1.88197
H          6.21499        1.44109        1.39225
H          5.23771        1.44366        2.88467
