16
2,3-BUTANEDIOL.gamout	Energy:    -308.5043640
C         10.02359       16.96000       -0.53949
C         11.49877       16.55286       -0.30454
C         12.32209       17.55755        0.49854
O         11.57195       15.24358        0.25702
C          9.20083       17.15301        0.73252
O          9.95275       18.10198       -1.39105
H          9.57714       16.14278       -1.12460
H         11.94627       16.45404       -1.30438
H         13.36280       17.21390        0.56576
H         12.32555       18.54484        0.01346
H         11.93416       17.67955        1.52201
H         11.37566       15.28035        1.20057
H          8.15572       17.36526        0.47128
H          9.21474       16.24601        1.35464
H          9.57946       17.99000        1.34012
H         10.13427       18.90130       -0.88274
