24
2,3-DIMETHYL-2-HEXENE.gamout	Energy:    -314.0414620
C          4.04044        3.17049        3.07774
C          2.99100        2.91681        2.00743
C          2.03494        1.96173        2.09915
C          3.11629        3.87307        0.84026
C          5.45159        2.63884        2.74041
C          1.89622        1.00790        3.26575
C          0.96576        1.72321        1.05645
C          5.54589        1.11321        2.66921
H          4.11702        4.26138        3.22667
H          3.73269        2.75843        4.04730
H          2.86007        4.89900        1.15688
H          2.48348        3.62037       -0.01571
H          4.15554        3.91354        0.47771
H          6.15101        3.01332        3.50530
H          5.79034        3.07008        1.78495
H          0.89817        1.10678        3.72558
H          1.97266       -0.03589        2.91706
H          2.64384        1.14637        4.05117
H         -0.03581        1.84461        1.50365
H          1.01258        0.68499        0.68576
H          1.02288        2.39035        0.19141
H          4.86380        0.70846        1.90771
H          5.28132        0.65359        3.63411
H          6.56615        0.79107        2.41539
