18
2,3-DIMETHYL-1-BUTENE.gamout	Energy:    -235.5223274
C          2.93248        2.05521        2.49472
C          1.60439        2.37953        1.81714
C          0.78585        3.38889        2.64992
C          1.73256        2.86127        0.36842
C          2.83826        1.22884        3.75540
C          4.12019        2.46090        2.02303
H          1.03059        1.43455        1.80147
H         -0.19621        3.56296        2.18544
H          1.31237        4.35343        2.70827
H          0.61051        3.03565        3.67479
H          2.23052        3.84116        0.31095
H          0.73761        2.97532       -0.08453
H          2.30613        2.15135       -0.24359
H          2.33236        0.26916        3.55620
H          2.24835        1.73805        4.53390
H          3.83138        1.01390        4.17019
H          4.21886        3.04874        1.11079
H          5.04556        2.21441        2.54680
