24
2,4,4-TRIMETHYL-1-PENTENE.gamout	Energy:    -314.0393501
C          3.12446        1.00719        2.86198
C          1.82124        1.81357        3.16792
C          4.18943        1.67986        2.01435
C          2.13166        3.16891        3.82865
C          0.97240        0.96623        4.13556
C          1.02107        2.05403        1.87501
C          5.28521        2.42032        2.74324
C          4.19518        1.57305        0.67719
H          3.57246        0.71549        3.82607
H          2.81677        0.07228        2.36920
H          1.19957        3.67857        4.11365
H          2.67574        3.83532        3.14559
H          2.73448        3.04400        4.74065
H          1.49894        0.80222        5.08784
H          0.01884        1.46650        4.36020
H          0.74105       -0.01908        3.70374
H          1.59934        2.63878        1.14733
H          0.09457        2.60530        2.09319
H          0.74100        1.10267        1.39811
H          4.88628        3.20741        3.39957
H          5.84641        1.72761        3.39280
H          5.99392        2.88147        2.04280
H          4.96570        2.05023        0.06847
H          3.43531        0.99859        0.14370
