32
2,4,5-TRIMETHYLHEPTANE.gamout	Energy:    -393.7742119
C         -0.43974       18.08335       -0.28852
C          0.97191       18.54617        0.08471
C          1.26436       20.06079        0.01885
C          0.46936       20.96764        1.01125
C          2.77668       20.29210        0.18233
C         -0.91335       21.37760        0.46380
C          0.38568       20.38184        2.42894
C         -1.68174       22.45587        1.25416
C         -0.91626       23.78343        1.34058
C         -3.06880       22.67236        0.63312
H         -0.47386       16.98714       -0.36789
H         -1.19001       18.37807        0.45715
H         -0.75346       18.49738       -1.25914
H          1.68146       18.05363       -0.59963
H          1.22756       18.16956        1.08883
H          0.99756       20.39663       -0.99899
H          1.06041       21.89459        1.08257
H          3.03256       21.35142        0.03678
H          3.35046       19.70378       -0.54811
H          3.12265       19.99761        1.18511
H         -0.77970       21.74510       -0.56855
H         -1.55728       20.49013        0.38611
H          0.02115       21.12726        3.14791
H          1.36832       20.04387        2.78591
H         -0.30069       19.52347        2.46984
H         -1.83839       22.08742        2.28216
H         -1.50414       24.54210        1.87750
H          0.04266       23.67919        1.86642
H         -0.70525       24.17615        0.33273
H         -3.65305       23.40703        1.20622
H         -3.64454       21.73562        0.59992
H         -2.97898       23.04778       -0.39885
