29
2,4-DIMETHYLHEPTANE.gamout	Energy:    -354.5172768
C          4.36510        2.77504        3.10355
C          3.00079        3.49380        2.97911
C          5.33050        2.82395        1.89253
C          2.09349        2.92001        1.87264
C          3.11464        5.01890        2.83822
C          6.26520        4.04371        1.92052
C          6.15925        1.53256        1.81054
C          1.75680        1.42979        1.99975
C          0.71992        0.96000        0.97673
H          4.16281        1.72149        3.34609
H          4.88985        3.17554        3.98758
H          2.48612        3.30009        3.93736
H          4.72938        2.88435        0.97015
H          1.15162        3.49481        1.87462
H          2.54680        3.10573        0.88387
H          3.51566        5.30792        1.85539
H          2.12591        5.49012        2.93611
H          3.76970        5.44736        3.61042
H          5.71693        4.99299        1.94495
H          6.91790        4.05720        1.03484
H          6.91202        4.00963        2.81176
H          6.84962        1.55462        0.95436
H          5.51506        0.64785        1.70270
H          6.76321        1.39823        2.72225
H          2.67238        0.82930        1.88498
H          1.38663        1.22828        3.01946
H          0.50818       -0.11371        1.08257
H         -0.23006        1.50334        1.09587
H          1.07299        1.13137       -0.05202
