29
2,4-DIMETHYL-3-ETHYLPENTANE.gamout	Energy:    -354.5118080
C          4.55420        0.98862        2.49858
C          3.46771        2.02385        2.07368
C          2.17525        1.89550        2.95407
C          4.02862        3.45584        1.93869
C          5.64325        0.80815        1.43084
C          5.18429        1.25679        3.87351
C          2.05880        2.91057        4.10262
C          0.89498        1.90155        2.10308
C          3.17622        4.41902        1.10508
H          4.02419        0.02272        2.56838
H          3.17547        1.71402        1.05530
H          2.22299        0.89853        3.42415
H          5.01942        3.39461        1.46640
H          4.20271        3.89275        2.93308
H          6.28751       -0.04903        1.67622
H          5.20543        0.62289        0.43861
H          6.29731        1.68920        1.35084
H          5.71669        2.21925        3.89355
H          5.91587        0.47372        4.12038
H          4.43413        1.26726        4.67500
H          1.19600        2.66381        4.73845
H          1.90475        3.93404        3.73220
H          2.94944        2.91739        4.74334
H          0.00651        1.72806        2.72872
H          0.92284        1.11328        1.33636
H          0.75394        2.86242        1.58804
H          3.69056        5.38255        0.97746
H          2.98506        4.00796        0.10201
H          2.20266        4.62740        1.56808
