24
2,4-DIMETHYL-2-PENTANOL.gamout	Energy:    -351.1450304
C          2.25802       -0.88390        0.71844
C          1.15879       -0.10334       -0.02062
C          1.33620       -0.25317       -1.53967
C         -0.22104       -0.60257        0.46032
C         -1.49582       -0.07228       -0.22804
C         -2.69422       -0.95220        0.16041
C         -1.78947        1.40334        0.08038
O          1.24839        1.28519        0.34284
H          3.25259       -0.49059        0.45588
H          2.12774       -0.79449        1.80565
H          2.24051       -1.94997        0.44946
H          1.17647       -1.29512       -1.85456
H          0.63073        0.38776       -2.08221
H          2.35566        0.03392       -1.83870
H         -0.20973       -1.69959        0.36126
H         -0.28439       -0.39234        1.54064
H         -1.36338       -0.16978       -1.31825
H         -3.61089       -0.61466       -0.34468
H         -2.52791       -2.00527       -0.11147
H         -2.87740       -0.90977        1.24598
H         -0.97861        2.05917       -0.25484
H         -2.72400        1.72021       -0.40621
H         -1.90788        1.55451        1.16508
H          2.13267        1.61053        0.13819
