24
2,4-DIMETHYL-CIS-3-HEXENE.gamout	Energy:    -314.0427616
C          0.37711       19.79542       -0.06604
C          0.96741       20.89642        0.83136
C          0.96414       22.27353        0.19674
C          2.04845       22.85506       -0.34678
C         -0.36985       22.98212        0.19915
C          3.45738       22.32630       -0.46040
C          3.86115       22.19027       -1.94052
C          4.44073       23.23656        0.29787
H          0.37248       18.82749        0.45701
H         -0.65870       20.02150       -0.35777
H          0.96645       19.68338       -0.98765
H          1.98681       20.61002        1.12287
H          0.38326       20.94368        1.76648
H          1.91640       23.85621       -0.77725
H         -0.72442       23.14822        1.23066
H         -0.31169       23.95520       -0.30576
H         -1.14578       22.38315       -0.30518
H          3.51137       21.32497       -0.00805
H          4.88952       21.81010       -2.03656
H          3.18882       21.50407       -2.47431
H          3.81641       23.16743       -2.44713
H          5.47224       22.86305        0.21077
H          4.18392       23.29499        1.36508
H          4.41852       24.25987       -0.10940
