24
2,5-DIMETHYL-1-HEXENE.gamout	Energy:    -314.0407908
C          3.15089        1.77123        3.21408
C          1.87309        1.19059        3.84720
C          3.60085        1.07991        1.91274
C          1.49412        1.83288        5.16548
C          2.57917        1.23964        0.77801
C          4.97868        1.59864        1.48088
C          2.39793        1.55149        6.34061
C          0.40514        2.60603        5.28240
H          3.97632        1.70662        3.93993
H          2.99641        2.84670        3.01990
H          1.03256        1.29676        3.14786
H          2.02182        0.10653        4.00387
H          3.70148        0.00027        2.12764
H          2.41846        2.30510        0.54704
H          2.93148        0.74861       -0.14084
H          1.60492        0.80043        1.03273
H          4.93840        2.67721        1.25935
H          5.72991        1.44717        2.27032
H          5.33388        1.08591        0.57492
H          2.47184        0.46608        6.52180
H          2.03162        2.02978        7.25813
H          3.42348        1.90986        6.15720
H         -0.25273        2.79853        4.43208
H          0.13441        3.07288        6.23143
