24
2,5-DIMETHYL-CIS-3-HEXENE.gamout	Energy:    -314.0350410
C          4.34141        3.16711        2.36919
C          5.19659        1.90584        2.39884
C          3.02951        3.30216        2.12222
C          5.28381        1.20574        1.02931
C          4.79247        0.92460        3.51593
C          1.99339        2.25238        1.79587
C          1.39107        2.50889        0.40234
C          0.89455        2.22816        2.87392
H          4.88299        4.09449        2.58020
H          6.21771        2.24371        2.63979
H          2.62703        4.32286        2.15588
H          6.00444        0.37456        1.06510
H          4.31302        0.79198        0.72310
H          5.61016        1.90654        0.24789
H          5.50783        0.08997        3.56771
H          4.77794        1.42472        4.49447
H          3.79435        0.49927        3.34195
H          2.47058        1.26359        1.77860
H          0.90977        3.49864        0.36250
H          2.16494        2.48016       -0.37731
H          0.62793        1.75446        0.15894
H          0.12860        1.47449        2.63665
H          1.31124        1.99597        3.86381
H          0.39396        3.20684        2.94010
