32
2,5-DIMETHYL-3-ETHYLHEXANE.gamout	Energy:    -393.7747744
C          0.72321       19.85059        1.10758
C          1.63968       20.71639        0.23365
C          0.84204       21.87270       -0.40585
C          2.83969       21.21985        1.04729
C          1.54274       22.64497       -1.55411
C          1.10515       22.18550       -2.97633
C          1.39181       24.17316       -1.39837
C          1.40230       20.70363       -3.24480
C         -0.35822       22.51245       -3.31128
C          2.21952       24.77821       -0.26223
H         -0.10314       19.42027        0.52216
H          1.27594       19.01924        1.56920
H          0.27947       20.44679        1.92129
H          2.02923       20.07708       -0.57511
H         -0.11683       21.47495       -0.76956
H          0.57052       22.57134        0.40250
H          3.52735       21.82623        0.44222
H          3.41522       20.37752        1.45820
H          2.50402       21.83971        1.89401
H          2.62390       22.43330       -1.49586
H          1.73145       22.76585       -3.67677
H          1.68598       24.65767       -2.34385
H          0.32948       24.42337       -1.24626
H          1.19592       20.45555       -4.29579
H          2.45590       20.46218       -3.04221
H          0.77748       20.04288       -2.62525
H         -0.59123       22.21833       -4.34519
H         -0.57278       23.58530       -3.21828
H         -1.05599       21.97105       -2.65530
H          2.06682       25.86531       -0.19998
H          1.95127       24.35194        0.71510
H          3.29419       24.59892       -0.41835
