17
2,6-DIMETHYLPYRIDINE.gamout	Energy:    -326.4950703
C          2.42386        1.11143        0.00562
C          1.16115        0.28641       -0.01126
N          0.00001        0.95394        0.00002
C         -1.16113        0.28645        0.01127
C         -1.20192       -1.11700        0.01264
C         -0.00002       -1.82397       -0.00020
C          1.20191       -1.11702       -0.01247
C         -2.42385        1.11144       -0.00560
H          2.72710        1.32298        1.04415
H          3.25661        0.58917       -0.48540
H          2.25056        2.07510       -0.48929
H         -2.15979       -1.63926        0.02111
H         -0.00004       -2.91604       -0.00022
H          2.15977       -1.63931       -0.02062
H         -2.72850        1.32096       -1.04412
H         -3.25598        0.59013        0.48750
H         -2.24989        2.07602        0.48727
