30
2,6-DIMETHYL-4-HEPTANOL.gamout	Energy:    -429.6619415
C          3.30290        2.89695        2.28621
C          4.66082        2.25441        1.97545
C          2.05913        2.11608        1.82332
C          5.81824        3.13444        2.44965
O          4.84527        2.04359        0.57214
C          0.79053        2.94689        2.06052
C          1.94431        0.73785        2.49057
C          7.22957        2.56263        2.22431
C          8.29093        3.61871        2.55825
C          7.47088        1.27236        3.01928
H          3.29050        3.90058        1.83150
H          3.23925        3.04618        3.37805
H          4.72349        1.28229        2.49505
H          2.14309        1.96552        0.73220
H          5.73386        4.10434        1.93299
H          5.67670        3.33919        3.52449
H          4.21663        1.38966        0.25054
H          0.85138        3.91806        1.54877
H         -0.10368        2.42491        1.69038
H          0.64499        3.14096        3.13494
H          2.80481        0.09048        2.26951
H          1.04079        0.21074        2.15242
H          1.88017        0.84017        3.58547
H          7.31345        2.32320        1.15272
H          9.30421        3.23947        2.36066
H          8.24411        3.90464        3.62169
H          8.15033        4.53094        1.96006
H          8.48883        0.89164        2.85185
H          6.77288        0.47393        2.73193
H          7.35525        1.44967        4.10101
