14
2-ACETYLTHIOPHEN.gamout	Energy:    -705.1013222
C         -1.49399        1.92584       -0.54666
C         -2.75911        1.84464        0.28682
O         -2.90599        2.52300        1.29118
C         -3.81272        0.91315       -0.15957
S         -5.29042        0.78542        0.76540
C         -5.91730       -0.39565       -0.32481
C         -5.04307       -0.68293       -1.34931
C         -3.84007        0.06598       -1.25339
H         -0.81422        2.65231       -0.08952
H         -1.00056        0.94352       -0.60096
H         -1.72728        2.23737       -1.57625
H         -6.90390       -0.82261       -0.15687
H         -5.25394       -1.40260       -2.14003
H         -3.02048       -0.01596       -1.96650
