14
2-BROMOBUTANE.gamout	Energy:   -2731.3694996
C         -0.00391       -0.15988       -0.24934
C          1.51599       -0.05183       -0.17133
Br         2.08175        1.87649       -0.22914
C          2.11506       -0.69516        1.06815
C         -0.63115        0.30052       -1.56382
H         -0.44297        0.38687        0.59988
H         -0.24089       -1.22611       -0.08498
H          1.97641       -0.46040       -1.08029
H          1.88870       -1.77391        1.06171
H          1.69107       -0.25952        1.98372
H          3.20469       -0.57219        1.09890
H         -0.43823        1.36624       -1.74714
H         -1.71958        0.14919       -1.54606
H         -0.22764       -0.26857       -2.41549
