22
2-BUTOXYETHANOL.gamout	Energy:    -387.0066908
C         -4.61317        0.36366        0.39901
C         -3.35120       -0.33859       -0.10621
H         -4.65601        1.40480        0.04374
H         -4.64112        0.38648        1.49922
H         -5.52214       -0.14726        0.05044
C         -2.05809        0.33962        0.35681
H         -3.36972       -0.37632       -1.20853
H         -3.35505       -1.38782        0.23485
C         -0.80632       -0.36033       -0.14945
H         -2.02162        0.37070        1.45765
H         -2.03664        1.38605        0.01170
O          0.33733        0.32430        0.32184
H         -0.80042       -0.38668       -1.25759
H         -0.78415       -1.41267        0.19795
C          1.55771       -0.23895       -0.09923
C          2.69131        0.59138        0.48116
H          1.63056       -0.24605       -1.20344
H          1.65222       -1.28668        0.24517
O          3.91136        0.01009        0.04363
H          2.59106        1.63410        0.13253
H          2.61415        0.59140        1.58229
H          4.65585        0.51011        0.39150
