15
2-BUTANOL.gamout	Energy:    -233.3675249
C         -4.46866       -1.40087        0.03434
C         -3.23285       -0.51427       -0.16192
H         -1.32314       -0.42663       -1.20258
H         -1.76062       -2.05236       -0.62788
H         -2.57181       -1.35534       -2.05994
H         -3.73159       -2.61074        1.69065
H         -5.15922       -3.28284        0.86940
H         -3.56653       -3.39990        0.10389
C         -2.16102       -1.12749       -1.06469
O         -2.71202       -0.22654        1.13903
H         -1.95205        0.36049        1.06337
C         -4.21104       -2.74886        0.71236
H         -5.19415       -0.82485        0.62942
H         -4.93230       -1.55560       -0.95346
H         -3.58024        0.42819       -0.62585
