8
2-CHLORO-1,1,1,2-TETRAFLUOROETHANE.gamout	Energy:    -935.6747893
C          0.16202        0.87365       -0.12648
C          0.67551       -0.53854        0.22664
F         -1.16886        0.86001       -0.27175
F          2.01886       -0.47299        0.40331
Cl         0.28186       -1.70939       -1.05806
F          0.46472        1.70792        0.88103
F          0.71485        1.34501       -1.24390
H          0.19989       -0.87507        1.15719
