16
2-CHLOROMETHYLPHENOL.gamout	Energy:    -805.7581952
Cl         2.98742       -0.18929       -0.81832
O          0.48016        2.20315        0.18795
C          0.45984       -0.16175        0.33192
C         -0.23017        1.04397        0.09120
C         -0.25408       -1.36471        0.23862
C          1.91361       -0.15041        0.67797
C         -1.59323        1.03003       -0.22901
C         -1.61194       -1.38799       -0.08312
C         -2.27966       -0.18237       -0.31824
H          0.27632       -2.30223        0.41845
H          2.19854       -1.03674        1.25359
H          2.20578        0.75717        1.21334
H         -2.11547        1.97298       -0.41104
H         -2.14574       -2.33680       -0.14767
H         -3.34162       -0.18164       -0.56983
H         -0.07392        2.96244       -0.02480
