16
2-ETHOXYETHANOL.gamout	Energy:    -308.4897757
O         -1.15204        0.23477       -0.03752
O          2.43164       -0.06992       -0.16252
C          0.08987       -0.43035       -0.07919
C         -2.26787       -0.63363        0.01165
C          1.18934        0.61866       -0.12305
C         -3.54071        0.19054        0.05393
H          0.22465       -1.07174        0.81272
H          0.16100       -1.08109       -0.97138
H         -2.26284       -1.29879       -0.87404
H         -2.19506       -1.28427        0.90525
H          1.11161        1.26143        0.77086
H          1.05086        1.25372       -1.01529
H         -4.41850       -0.46997        0.09434
H         -3.55161        0.83891        0.94117
H         -3.62221        0.82360       -0.84064
H          3.15585        0.56254       -0.19049
