24
2-ETHYL-M-XYLENE.gamout	Energy:    -388.9814282
C          0.88715        2.79738        0.71174
C          2.04535        3.42388        1.50977
C          2.62341        2.50161        2.56781
C          2.08572        2.49579        3.87716
C          3.68498        1.62332        2.24523
C          0.96545        3.43241        4.27213
C          2.60908        1.61410        4.83386
C          4.30448        1.60841        0.86537
C          4.18422        0.75500        3.22695
C          3.65182        0.74548        4.51526
H          1.20899        1.88672        0.18665
H          0.05386        2.51580        1.37115
H          0.50371        3.50485       -0.03854
H          1.69177        4.35267        1.97859
H          2.83373        3.72895        0.80724
H          1.27762        4.48715        4.21022
H          0.08298        3.32056        3.62493
H          0.64629        3.24190        5.30467
H          2.19122        1.61257        5.84266
H          3.55964        1.41817        0.07872
H          4.78657        2.56975        0.62633
H          5.07157        0.82683        0.79445
H          5.00325        0.07891        2.97332
H          4.04993        0.06410        5.26937
