12
2-FURANCARBOXYLIC_ACID.gamout	Energy:    -418.1075334
C         -5.74769       -0.35559       -0.12253
O         -4.95430       -1.28045       -0.73707
C         -7.07014       -0.64482       -0.35734
C         -5.13899        0.73513        0.64400
C         -5.76853       -2.15554       -1.36124
C         -7.08368       -1.81943       -1.16583
O         -3.79029        0.69126        0.65039
O         -5.77842        1.59188        1.21518
H         -7.91454       -0.07188        0.01394
H         -5.28397       -2.96189       -1.90275
H         -7.94898       -2.34941       -1.55416
H         -3.48017        1.44461        1.17642
