19
2-HEPTYNE.gamout	Energy:    -273.5411539
C          5.47482        1.71787        1.85303
C          4.30823        1.05136        1.09556
C          2.98825        1.60540        1.41333
C          5.66919        3.19929        1.51877
C          1.90019        2.06823        1.68782
C          6.82641        3.84348        2.28471
C          0.58509        2.61873        2.01048
H          6.39754        1.16339        1.61452
H          5.31028        1.60337        2.93680
H          4.48465        1.13753        0.00924
H          4.30439       -0.02857        1.31669
H          4.73503        3.74150        1.73369
H          5.84155        3.30201        0.43371
H          6.66255        3.78664        3.37199
H          7.78074        3.33956        2.06567
H          6.94002        4.90434        2.01901
H          0.62030        3.71625        2.09085
H         -0.15298        2.36379        1.23427
H          0.21246        2.22432        2.96848
