24
2-HYDROXYPROPYL_NICOTINATE.gamout	Energy:    -629.2375946
O         -1.06280        0.07589        0.10642
O         -3.28837       -1.36076       -0.93684
O         -0.20832        2.13321       -0.21888
N          2.63059       -1.71065        0.19188
C         -3.37368       -0.54400        0.22694
C         -2.39551        0.60177        0.03274
C         -4.79504       -0.02737        0.45325
C          1.28528        0.27747       -0.00161
C         -0.05101        0.94228       -0.05404
C          2.43980        1.06525       -0.10261
C          1.43960       -1.11222        0.14027
C          3.68327        0.44117       -0.05143
C          3.72486       -0.94984        0.09980
H         -3.04712       -1.11924        1.11196
H         -2.54865        1.07158       -0.94937
H         -2.52769        1.36860        0.80824
H         -5.13330        0.56759       -0.40723
H         -5.48956       -0.87033        0.58045
H         -4.85056        0.59420        1.35940
H         -3.73359       -2.20125       -0.78547
H          2.33805        2.14479       -0.21897
H          0.55953       -1.75391        0.20751
H          4.60726        1.01598       -0.12671
H          4.68504       -1.47209        0.14699
