18
2-METHYL-2-PENTENE.gamout	Energy:    -235.5263097
C          2.91365        2.62995        1.95658
C          4.00572        1.89017        2.22371
C          1.46974        2.20490        1.94799
C          5.38735        2.49498        2.17227
C          3.97978        0.42750        2.59534
C          0.79864        2.38654        0.57718
H          3.07908        3.68275        1.69610
H          1.36734        1.15989        2.27004
H          0.91833        2.80875        2.69111
H          5.89565        2.39714        3.14671
H          5.36236        3.55977        1.90472
H          6.01954        1.96939        1.43628
H          4.58628       -0.16134        1.88646
H          4.42994        0.27354        3.59063
H          2.97062        0.00218        2.61131
H          0.86483        3.43200        0.23880
H          1.28478        1.75901       -0.18444
H         -0.26649        2.11361        0.61843
