23
2-METHYLHEXANE.gamout	Energy:    -276.0047308
C          2.72279        1.27341        0.84412
C          1.68629        1.96116        1.75554
C          3.98668        0.73012        1.52614
C          1.14372        1.01916        2.83836
C          0.54354        2.54633        0.91425
C          4.85703        1.79421        2.20618
C          6.16901        1.23807        2.76302
H          3.02669        1.98888        0.06104
H          2.22127        0.44474        0.31474
H          2.18543        2.80523        2.26120
H          3.71734       -0.04554        2.26261
H          4.59423        0.21507        0.76332
H          1.93412        0.66837        3.51616
H          0.67488        0.13235        2.38212
H          0.38122        1.52125        3.45173
H          0.00450        1.75099        0.37519
H         -0.18484        3.07724        1.54475
H          0.92341        3.25994        0.16824
H          5.07643        2.59691        1.48084
H          4.29266        2.27448        3.02134
H          6.76861        2.02564        3.24157
H          5.98215        0.45754        3.51713
H          6.77989        0.78829        1.96505
