16
2-METHYL-2,3-PENTADIENE.gamout	Energy:    -234.2878862
C          0.97585        0.81141        0.16570
C          2.34957        0.19042        0.02074
C          2.89646       -0.01693       -1.15851
C          3.44200       -0.22393       -2.33511
C          3.29694       -1.48119       -3.15979
C          3.05980       -0.17495        1.30720
H          1.03225        1.74173        0.75543
H          0.29717        0.13001        0.70586
H          0.53060        1.04440       -0.80939
H          4.05877        0.57376       -2.77066
H          2.66692       -2.22197       -2.65000
H          4.28159       -1.93684       -3.35496
H          2.84588       -1.25721       -4.14041
H          2.46037       -0.89491        1.88946
H          3.19428        0.71741        1.94170
H          4.04556       -0.61707        1.11712
