26
2-METHYL-3-ETHYLPENTANE.gamout	Energy:    -315.2579098
C          3.60979        2.44574        1.21091
C          2.41461        2.57978        2.19806
C          1.55418        3.82472        1.88532
C          1.56081        1.29446        2.30367
C          4.46204        1.19546        1.48452
C          4.51789        3.68692        1.22220
C          0.38047        4.06909        2.83909
C          0.86134        0.84683        1.01556
H          3.19479        2.35041        0.19195
H          2.85419        2.73709        3.20180
H          2.19776        4.71388        1.91263
H          1.17876        3.75930        0.85030
H          2.19170        0.47443        2.67502
H          0.80374        1.44678        3.08660
H          5.32620        1.16551        0.80607
H          4.84892        1.20291        2.51630
H          3.90247        0.26211        1.34198
H          4.89966        3.88155        2.23750
H          5.38648        3.53562        0.56505
H          4.00539        4.59259        0.87545
H          0.71922        4.08763        3.88684
H         -0.39851        3.29882        2.75341
H         -0.09429        5.03752        2.62649
H          1.58063        0.60773        0.21871
H          0.18238        1.61893        0.62555
H          0.26090       -0.05627        1.19636
