24
2-METHYL-3-ETHYL-1-PENTENE.gamout	Energy:    -314.0371179
C          2.91471        3.18803        2.49648
C          2.84822        1.66249        2.49242
C          1.42043        1.16417        2.13229
C          3.92901        0.96436        1.64661
C          2.39939        3.84905        3.75142
C          3.37456        3.91743        1.46993
C          0.97293        1.41617        0.69092
C          5.35296        1.14783        2.17736
H          3.01456        1.34327        3.53764
H          1.38265        0.08262        2.34216
H          0.69758        1.62930        2.82026
H          3.87493        1.30599        0.60228
H          3.69340       -0.11213        1.61943
H          3.01995        3.56417        4.61750
H          1.37192        3.52669        3.98378
H          2.40406        4.94346        3.66879
H          3.76777        3.46563        0.55924
H          3.37633        5.00815        1.51157
H          1.01514        2.48515        0.43943
H         -0.06260        1.07597        0.54626
H          1.60093        0.87445       -0.03109
H          5.44244        0.75216        3.20104
H          5.63945        2.20814        2.20182
H          6.08085        0.61491        1.54887
