32
2-METHYL-4-ETHYLHEPTANE.gamout	Energy:    -393.7782971
C         -0.74540        0.36279        0.16459
C          0.72349        0.77980        0.25740
C          0.95563        2.26043       -0.06338
C          2.42775        2.71767        0.00067
C          3.21440        2.22744       -1.23313
C          2.53248        4.25049        0.14811
C          4.75166        2.22532       -1.11600
C          5.25452        1.17312       -0.11748
C          5.39333        2.01318       -2.49379
C          2.14611        4.79237        1.52651
H         -0.87729       -0.69992        0.41413
H         -1.36875        0.94967        0.85719
H         -1.14179        0.51966       -0.85082
H          1.32238        0.14920       -0.41884
H          1.09771        0.57480        1.27504
H          0.35393        2.85913        0.63836
H          0.55665        2.48702       -1.06890
H          2.87199        2.26391        0.90334
H          2.89758        1.20484       -1.49435
H          2.92193        2.85741       -2.09098
H          3.56335        4.56472       -0.07422
H          1.90242        4.71948       -0.62771
H          5.07558        3.21604       -0.75389
H          6.35138        1.19727       -0.03940
H          4.84882        1.32984        0.89134
H          4.96408        0.16120       -0.44269
H          6.49157        2.02546       -2.43131
H          5.08662        2.79730       -3.20182
H          5.09647        1.04191       -2.92211
H          2.24534        5.88692        1.56271
H          1.10707        4.54767        1.78935
H          2.79623        4.37165        2.30913
