13
2-METHYL-1,3-BUTADIENE.gamout	Energy:    -195.0381145
C          1.84564        2.17752        1.06805
C          3.27482        2.13354        1.46240
C          4.00439        0.86706        1.07939
C          3.89882        3.13184        2.11277
C          0.96356        3.16592        1.27553
H          1.48741        1.28384        0.54513
H          3.97632        0.71304       -0.01192
H          3.52625       -0.01418        1.53809
H          5.05483        0.89151        1.39606
H          4.95274        3.05614        2.38326
H          3.38710        4.05260        2.39677
H          1.22956        4.09303        1.78757
H         -0.06765        3.07442        0.93336
