20
2-METHYL_CYCLOHEXANONE.gamout	Energy:    -348.7469962
C          0.97444        0.17406        0.29939
C          2.49530        0.05378        0.07351
C          2.96337        1.07519       -0.96530
C          2.93065       -1.37646       -0.32726
O          3.51046        2.11026       -0.64094
C          2.70110        0.72412       -2.42207
C          2.57489       -1.73360       -1.77658
C          3.15359       -0.70987       -2.76085
H          0.70110        1.19704        0.59324
H          0.66347       -0.50600        1.10585
H          0.39594       -0.08684       -0.59756
H          2.99764        0.33495        1.01037
H          2.47956       -2.09920        0.37032
H          4.02201       -1.46201       -0.19694
H          3.19473        1.47533       -3.05154
H          1.61368        0.80855       -2.59449
H          1.48047       -1.78605       -1.89750
H          2.95780       -2.73753       -2.01489
H          4.25495       -0.75513       -2.72802
H          2.86212       -0.95608       -3.79266
