25
2-NONYNE.gamout	Energy:    -352.0575045
C          4.42941        1.63417        2.11212
C          5.06678        2.94952        1.65177
C          6.43364        3.23936        2.30795
C          3.10929        1.28424        1.41162
C          7.47865        2.26433        1.98041
C          1.94436        2.23643        1.71001
C          8.33636        1.45431        1.69556
C          0.63100        1.80551        1.05233
C          9.37800        0.48579        1.35919
H          4.26310        1.67562        3.20328
H          5.14962        0.81903        1.94271
H          4.40084        3.79574        1.88034
H          5.19356        2.93251        0.55694
H          6.77208        4.24314        2.00353
H          6.30657        3.28152        3.40362
H          3.27577        1.24477        0.32058
H          2.81475        0.26410        1.70939
H          1.80455        2.29986        2.80281
H          2.19832        3.25462        1.37467
H         -0.18467        2.50481        1.28596
H          0.73214        1.76298       -0.04323
H          0.32561        0.80550        1.39697
H         10.37152        0.96026        1.34404
H          9.41057       -0.33595        2.09149
H          9.20435        0.04263        0.36624
