25
2-OCTANONE.gamout	Energy:    -389.2054769
C          2.07219        2.23150        2.87499
C          2.64828        1.64624        4.16148
C          3.26990        2.70219        5.08084
C          1.51759        1.20306        1.89814
C          3.83508        2.11765        6.37819
C          0.84404        1.74711        0.65154
O          1.60911        0.00906        2.09908
C          4.52129        3.15190        7.27591
C          5.07047        2.56241        8.57648
H          1.26922        2.95801        3.09411
H          2.83781        2.81522        2.33137
H          1.85357        1.10471        4.69837
H          3.40245        0.88683        3.90320
H          2.51534        3.47016        5.32837
H          4.07350        3.23084        4.53851
H          4.55317        1.31559        6.13266
H          3.01995        1.63096        6.94140
H          1.51860        2.43203        0.11482
H         -0.04635        2.33244        0.93053
H          0.55046        0.91987       -0.00387
H          3.80615        3.95860        7.51208
H          5.34095        3.63004        6.71324
H          5.80755        1.76999        8.37326
H          4.26473        2.11894        9.18164
H          5.56527        3.33047        9.18831
