22
2-OCTYNE.gamout	Energy:    -312.8001222
C          5.52589        0.78676        1.29950
C          4.52072        1.95302        1.36504
C          3.07552        1.50287        1.13972
C          6.91762        1.19004        1.51219
C          2.06042        2.64866        1.20075
C          8.06525        1.54115        1.69076
C          0.61653        2.19593        0.97444
C          9.45227        1.94934        1.90429
H          5.43857        0.28809        0.31862
H          5.24836        0.02611        2.04969
H          4.61109        2.44705        2.34584
H          4.79882        2.70725        0.61145
H          2.99740        1.00222        0.15836
H          2.80799        0.74070        1.89279
H          2.13915        3.14856        2.18094
H          2.32926        3.40921        0.44834
H         -0.08258        3.04319        1.02308
H          0.30717        1.46212        1.73495
H          0.49886        1.72127       -0.01225
H          9.54725        2.59511        2.79102
H          9.84172        2.50880        1.03946
H         10.10339        1.07434        2.05673
