18
2-PENTANETHIOL.gamout	Energy:    -595.5121876
C         34.95357       30.03739       -0.07051
C         33.63301       29.25203       -0.06136
C         34.77832       31.55982        0.00290
C         32.76180       29.48302       -1.29476
S         34.09005       27.45890        0.12404
C         36.11211       32.30591        0.08707
H         35.56291       29.71195        0.78821
H         35.52544       29.77305       -0.97627
H         33.07104       29.52885        0.84349
H         34.21892       31.91673       -0.87577
H         34.16356       31.81081        0.88392
H         31.83992       28.88719       -1.24454
H         32.46762       30.54110       -1.37101
H         33.30050       29.20300       -2.21150
H         32.83580       26.95059        0.09793
H         35.95737       33.39298        0.13822
H         36.67847       32.00330        0.98104
H         36.74147       32.09799       -0.79199
