16
2-PENTANONE.gamout	Energy:    -271.4294477
O          1.22684       -1.25834        0.01144
C         -1.46366       -0.40381        0.00495
C         -0.30067        0.58693        0.00072
C         -2.83228        0.27966        0.00084
C          1.08023       -0.05355        0.00452
C          2.26637        0.89073       -0.00089
H         -0.35726        1.25579       -0.87714
H         -0.35799        1.26453        0.87180
H         -1.36773       -1.06705       -0.86747
H         -1.36887       -1.05902        0.88354
H         -2.96290        0.91298       -0.89063
H         -2.96435        0.92104        0.88630
H         -3.64345       -0.46235        0.00354
H          2.22936        1.55259        0.87859
H          2.22956        1.54186       -0.88835
H          3.20182        0.32053        0.00268
