12
2-PROPANOL.gamout	Energy:    -194.1104779
C          0.61472        1.20207        2.00017
C          2.07183        1.65273        2.10335
C          2.94567        1.09721        0.98617
O          2.18087        3.07693        2.03416
H          0.17482        1.55305        1.05496
H          0.54234        0.10468        2.03492
H          0.01709        1.60281        2.83373
H          2.48227        1.30894        3.07263
H          2.95148       -0.00178        1.00966
H          2.56693        1.42586        0.00713
H          3.97781        1.45590        1.09782
H          1.60087        3.48018        2.68969
