12
2-PROPANETHIOL.gamout	Energy:    -516.9961571
C          3.44685        1.17086        1.73700
C          2.15334        1.60975        1.05118
C          0.89977        1.10151        1.76278
S          2.10103        3.44599        0.78931
H          4.32972        1.52319        1.18823
H          3.50061        1.56772        2.76244
H          3.49058        0.07142        1.80056
H          2.15290        1.23283        0.01630
H          0.84572        1.49477        2.78959
H         -0.01176        1.40587        1.23253
H          0.91621        0.00123        1.82585
H          2.10783        3.78862        2.09982
