27
2-PROPYLNAPHTHALENE.gamout	Energy:    -503.1650682
C          5.80195        1.46828       -0.69935
C          6.94394        1.52661        0.07188
C          4.57521        0.99380       -0.15501
C          6.91417        1.11260        1.42808
C          5.74117        0.64846        1.98610
C          4.54625        0.57530        1.21784
C          3.31374        0.10799        1.75482
C          3.37873        0.92280       -0.92248
C          2.19033        0.46228       -0.38633
C          2.17677        0.05423        0.97998
C          0.93332        0.36184       -1.21993
C         -0.66531       -1.16290       -2.51350
C          0.61501       -1.07261       -1.68198
H          5.82582        1.78747       -1.74333
H          7.87648        1.89278       -0.36131
H          7.82305        1.16244        2.03023
H          5.71720        0.33023        3.03052
H          3.28011       -0.20519        2.80039
H          3.41004        1.24771       -1.96528
H          1.24213       -0.30198        1.41849
H          0.07665        0.74702       -0.64103
H          1.02815        1.01089       -2.10462
H         -0.86577       -2.19771       -2.82640
H         -1.53755       -0.80991       -1.94183
H         -0.59223       -0.54595       -3.42267
H          1.46849       -1.45605       -2.26387
H          0.53250       -1.72573       -0.79806
