13
2-PYRROLIDONE.gamout	Energy:    -286.2777390
N         -0.03528        1.08320        0.04434
C         -0.82975       -0.03103       -0.00101
C          0.10566       -1.23568       -0.14017
C          1.50465       -0.68051        0.17870
C          1.38957        0.83427       -0.11542
O         -2.04577       -0.04339        0.04167
H         -0.44674        2.00680        0.03121
H         -0.22105       -2.05087        0.51678
H          0.02398       -1.59804       -1.17772
H          1.73587       -0.83166        1.24272
H          2.30540       -1.15034       -0.40621
H          1.72603        1.07712       -1.13922
H          1.98288        1.44156        0.58319
