18
2-THIAHEXANE.gamout	Energy:    -595.5072444
S         -2.31076       -1.23731       -0.59294
C          0.36520       -0.49890       -0.60378
C          1.59718        0.08423        0.10100
C         -0.87059       -0.52265        0.29344
C          2.84314        0.11001       -0.78619
C         -3.56254       -1.11572        0.72592
H          0.58973       -1.52354       -0.94290
H          0.14906        0.08876       -1.51087
H          1.36855        1.10676        0.44569
H          1.80416       -0.50514        1.00998
H         -0.68100       -1.12761        1.19401
H         -1.12939        0.49675        0.62048
H          3.70589        0.53031       -0.24966
H          2.67787        0.72071       -1.68707
H          3.11544       -0.90398       -1.11722
H         -3.72662       -0.06962        1.02257
H         -3.27078       -1.70785        1.60548
H         -4.50008       -1.52003        0.32270
