32
3,3,5-TRIMETHYLHEPTANE.gamout	Energy:    -393.7721625
C          1.51635        1.58230        0.13716
C          1.21842        0.08833       -0.09765
C          2.29839       -0.76511        0.63283
C          3.75208       -0.61827        0.17250
C         -0.14151       -0.34904        0.52462
C         -1.49045        0.08894       -0.08967
C         -2.62090       -0.76536        0.53040
C         -3.96041       -0.70133       -0.20925
C         -1.79326        1.58769        0.06895
C          1.23619       -0.21598       -1.60695
H          2.53524        1.83530       -0.18552
H          0.83515        2.23250       -0.42216
H          1.42967        1.83790        1.20349
H          2.24364       -0.53017        1.70883
H          2.01293       -1.82571        0.54286
H          4.40187       -1.27434        0.76932
H          3.88073       -0.90515       -0.88051
H          4.13083        0.40667        0.29184
H         -0.13997       -1.45066        0.51184
H         -0.13791       -0.06858        1.59261
H         -1.47235       -0.14935       -1.16674
H         -2.29186       -1.81602        0.56288
H         -2.76432       -0.46022        1.58145
H         -4.69724       -1.37060        0.25799
H         -4.39113        0.31000       -0.20698
H         -3.84431       -1.01357       -1.25858
H         -1.16387        2.21270       -0.57462
H         -2.83610        1.81421       -0.18850
H         -1.63127        1.90546        1.11077
H          2.20084        0.04903       -2.05991
H          1.05708       -1.28496       -1.79978
H          0.46401        0.35402       -2.14128
