29
3,3,4-TRIMETHYLHEXANE.gamout	Energy:    -354.5140034
C          4.23781        1.89164        1.87711
C          2.88999        2.67040        2.11300
C          1.99568        1.90710        3.12821
C          3.21352        4.08190        2.64837
C          2.15495        2.83904        0.76709
C          5.00684        1.56749        3.17892
C          4.07744        0.61698        1.02987
C          0.57610        2.44792        3.33544
C          6.50616        1.32520        2.97404
H          4.87148        2.58496        1.29534
H          1.91890        0.85460        2.81549
H          2.50570        1.89509        4.10308
H          3.74058        4.05337        3.61084
H          2.29786        4.67076        2.79219
H          3.84548        4.63039        1.93407
H          1.32253        3.54978        0.85596
H          2.83674        3.22926       -0.00301
H          1.73873        1.89101        0.40057
H          4.55820        0.67839        3.65112
H          4.88892        2.38443        3.90349
H          3.35252       -0.07892        1.47754
H          5.03326        0.08289        0.95308
H          3.74962        0.83427        0.00561
H          0.06161        1.86950        4.11604
H         -0.03155        2.37549        2.42268
H          0.57608        3.49928        3.65643
H          7.00270        1.10768        3.93081
H          6.99192        2.21207        2.53918
H          6.70249        0.47623        2.30370
