24
3,3-DIMETHYL-1-HEXENE.gamout	Energy:    -314.0343167
C          5.83718        4.19556        1.68584
C          4.34207        4.22770        2.01719
C          3.64223        2.90576        1.67871
C          2.11312        2.81738        1.96504
C          1.68935        1.39728        1.62874
C          1.82751        3.04368        3.46876
C          1.33979        3.85514        1.13608
C          0.80105        0.99597        0.71477
H          6.00275        4.00165        0.61489
H          6.32226        5.15109        1.93192
H          6.35232        3.40291        2.25007
H          3.87071        5.05522        1.46505
H          4.21726        4.45748        3.08652
H          3.80108        2.68318        0.61035
H          4.14380        2.09398        2.23280
H          2.19562        0.62868        2.22537
H          2.10505        4.05990        3.78031
H          0.75838        2.90547        3.68258
H          2.39033        2.33202        4.09124
H          1.62135        4.87642        1.42171
H          1.53770        3.73891        0.06067
H          0.25672        3.75577        1.29445
H          0.58767       -0.06442        0.57044
H          0.25365        1.69273        0.07768
