32
3,3-DIETHYLHEXANE.gamout	Energy:    -393.7687112
C         -0.15619       44.91243        0.37265
C          1.35721       44.85151        0.14414
C          2.00455       46.24151        0.13052
C          3.55718       46.31953        0.01784
C          3.88159       47.82354       -0.21440
C          4.15606       45.82743        1.37483
C          4.07490       45.44426       -1.15247
C          5.34996       48.24702       -0.32272
C          5.60261       45.31535        1.40892
C          3.51753       45.76341       -2.54445
H         -0.60284       43.90796        0.36058
H         -0.39241       45.37397        1.34362
H         -0.65274       45.50916       -0.40807
H          1.55508       44.33875       -0.80907
H          1.81096       44.22423        0.92710
H          1.71087       46.77464        1.05093
H          1.55821       46.81862       -0.69552
H          3.36015       48.15079       -1.12687
H          3.41400       48.39236        0.60612
H          3.52335       45.01473        1.76013
H          4.04941       46.64891        2.10218
H          5.17017       45.51869       -1.19726
H          3.86589       44.38899       -0.91800
H          5.41326       49.31370       -0.58175
H          5.89075       48.11109        0.62284
H          5.88763       47.69001       -1.10321
H          5.88008       45.06364        2.44285
H          6.32916       46.05153        1.04410
H          5.72724       44.40192        0.81077
H          3.92822       45.06461       -3.28723
H          2.42281       45.67956       -2.58677
H          3.78559       46.77837       -2.86916
