22
3,3-DIMETHYLCYCLOHEXENE.gamout	Energy:    -312.8449228
C         -0.32802       -1.41228        0.07297
C         -1.26610       -0.45799        0.13329
C         -0.98942        1.03666        0.13062
C          0.52228        1.28932        0.35709
C          1.41547        0.33147       -0.43839
C          1.14766       -1.12479       -0.03832
C         -1.79246        1.69688        1.26989
C         -1.45235        1.63943       -1.21548
H         -0.63605       -2.46138        0.10518
H         -2.31966       -0.74957        0.19325
H          0.75994        2.33579        0.11066
H          0.74067        1.16320        1.43055
H          2.47560        0.58091       -0.28103
H          1.22397        0.45260       -1.51646
H          1.63750       -1.34828        0.92793
H          1.60601       -1.81643       -0.76417
H         -1.52070        1.26767        2.24492
H         -2.87391        1.55420        1.12588
H         -1.59793        2.77973        1.30620
H         -0.87054        1.24196       -2.05761
H         -1.34350        2.73530       -1.20711
H         -2.51066        1.40701       -1.40550
