21
3,3-DIMETHYL-1-PENTENE.gamout	Energy:    -274.7755527
C          2.78799        0.81617        2.08782
C          2.27583        1.90680        3.07739
C          2.04131        1.20867        4.40611
C          3.36006        2.98591        3.30174
C          0.99576        2.56992        2.54395
C          3.16882        1.28477        0.68033
C          0.90022        1.09080        5.09117
H          2.01073        0.03948        2.01144
H          3.66225        0.32435        2.54507
H          2.94211        0.74887        4.83097
H          4.29760        2.53834        3.66454
H          3.02568        3.71933        4.04882
H          3.58200        3.52959        2.37286
H          0.60028        3.29859        3.26547
H          0.20996        1.82664        2.34575
H          1.19373        3.10820        1.60841
H          3.98309        2.02307        0.69708
H          3.51589        0.43081        0.08074
H          2.31768        1.73194        0.14797
H          0.87455        0.55421        6.04077
H         -0.04375        1.51451        4.74436
