21
3,4-DIMETHYL-CIS-2-PENTENE.gamout	Energy:    -274.7791812
C          3.61879        2.25011        1.87461
C          2.13402        1.88881        1.74237
C          1.16392        2.70009        1.28338
C          1.79762        0.48379        2.18293
C          3.88129        3.36486        2.90402
C          4.29847        2.52644        0.52052
C          1.24741        4.11983        0.79583
H          4.11092        1.34950        2.27621
H          0.15199        2.28020        1.25267
H          2.07694        0.32446        3.23840
H          0.72846        0.26033        2.07287
H          2.36711       -0.25748        1.59676
H          4.96273        3.49690        3.06063
H          3.47049        4.33108        2.58319
H          3.42671        3.11567        3.87365
H          3.92176        3.44128        0.04417
H          5.38460        2.64374        0.65469
H          4.13127        1.69472       -0.17877
H          2.25745        4.53843        0.82967
H          0.88746        4.19477       -0.24380
H          0.59410        4.77412        1.39690
