15
3,4-XYLENOL.gamout	Energy:   -1190.0287245
Cl         7.33771        3.27095       -0.82141
C          6.30604        1.86622       -0.57699
C          6.88846        0.60886       -0.34118
C          4.92448        2.05798       -0.62761
C          8.38008        0.41088       -0.28847
C          6.00415       -0.46530       -0.15510
C          4.08870        0.95808       -0.43639
C          4.61784       -0.31045       -0.19900
Cl         2.34795        1.18223       -0.49657
H          4.51099        3.04768       -0.81256
H          8.85602        0.70995       -1.23473
H          8.83568        1.02319        0.50446
H          8.62470       -0.64113       -0.09641
H          6.41816       -1.45803        0.03056
H          3.95707       -1.16391       -0.05070
