19
3,4-DIMETHYL-1-PENTYNE.gamout	Energy:    -273.5302781
C          0.99977        0.07013        0.06235
C          2.21191        0.06697        0.03539
C          3.68188        0.09053        0.03444
C          4.24025        0.76027       -1.25774
C          5.77409        0.81125       -1.25650
C          3.73155        0.05208       -2.51968
C          4.18901        0.74520        1.33628
H         -0.07178        0.06601        0.08320
H          4.02730       -0.96025        0.02808
H          3.85981        1.79648       -1.26785
H          6.20067       -0.19970       -1.15589
H          6.17564        1.43205       -0.44535
H          6.14103        1.23245       -2.20307
H          4.10321       -0.98452       -2.55932
H          4.08713        0.56803       -3.42296
H          2.63512        0.01982       -2.55427
H          3.94702        1.81771        1.34962
H          5.27547        0.63066        1.44053
H          3.71427        0.27973        2.20928
