21
3,4-DIMETHYL-1-PENTENE.gamout	Energy:    -274.7757915
C          2.03151        2.07689        2.81934
C          2.19199        3.43102        2.05925
C          3.63061        3.89281        2.10801
C          1.59788        3.42977        0.64611
C          0.56579        1.76918        3.15390
C          2.69815        0.89798        2.09751
C          4.41477        4.23653        1.08098
H          2.55684        2.21058        3.78108
H          1.61924        4.16697        2.65550
H          4.05816        3.93583        3.11703
H          0.54905        3.10683        0.65311
H          2.15184        2.76077       -0.02753
H          1.62985        4.43893        0.21265
H         -0.02797        1.57560        2.24832
H          0.09466        2.60316        3.69558
H          0.49330        0.87381        3.78809
H          2.17390        0.65281        1.16167
H          2.67999       -0.00169        2.72932
H          3.74612        1.11703        1.84931
H          5.44601        4.55248        1.24595
H          4.06704        4.22351        0.04662
