27
3,5-DIETHYLTOLUENE.gamout	Energy:    -428.2437537
C          7.49462        5.63609        1.95629
C          6.63982        5.11782        0.78822
C          5.50753        4.21638        1.23385
C          4.24490        4.74495        1.53454
C          5.71185        2.83874        1.39867
C          3.20067        3.93053        1.99631
C          4.69188        1.99450        1.85879
C          1.83055        4.51306        2.27387
C          3.44327        2.55960        2.15711
C          4.92180        0.50871        2.00517
C          0.90998        4.50071        1.04249
H          6.88263        6.21404        2.66427
H          8.30426        6.28656        1.59240
H          7.94867        4.80255        2.51196
H          7.28521        4.57192        0.08219
H          6.22703        5.97556        0.23468
H          4.07084        5.81710        1.41040
H          6.69191        2.41351        1.16722
H          1.94055        5.54799        2.63381
H          1.35244        3.94825        3.08935
H          2.63971        1.91521        2.52341
H          5.98360        0.27976        2.17166
H          4.60795       -0.03121        1.09645
H          4.34725        0.09326        2.84540
H         -0.07424        4.93021        1.28263
H          1.34753        5.08468        0.21965
H          0.75612        3.47467        0.67735
