26
3-(MMIM)PHO.gamout	Energy:    -610.3009012
H         -1.39081       -5.32335       -1.88255
C         -0.69263       -4.78008       -1.23982
H         -1.56955       -2.83632       -1.69217
H          2.43573       -1.72580       -1.17742
C         -0.81926       -3.38396       -1.12283
C          0.29881       -5.48371       -0.57639
H          2.77730        0.01681       -1.44282
C          2.43929       -0.73373       -0.71878
C          0.11303       -2.71479       -0.29885
C          1.28814       -4.84486        0.27557
N          1.08199       -0.40019       -0.29910
C          0.05030       -1.26810       -0.14978
H         -3.07559       -0.79052       -0.25957
C          1.12111       -3.40892        0.38340
C          0.64755        0.88505       -0.04616
N         -1.03159       -0.52376        0.19143
H          3.12017       -0.74310        0.14230
C         -0.67575        0.80844        0.25492
H          1.30957        1.73962       -0.11289
C         -2.35447       -1.03082        0.53330
H          1.80948       -2.88381        1.04733
H         -1.38798        1.58272        0.51264
H         -2.29330       -2.11685        0.64676
H         -2.68304       -0.57141        1.47339
O          2.20510       -5.46347        0.86390
H          0.37196       -6.56893       -0.68447
