27
3-(MMIM)PHOH+1.gamout	Energy:    -610.7430014
H          1.15634       -4.75564       -3.69465
C          0.70911       -4.46923       -2.74085
H          1.19392       -2.38350       -2.97055
H          2.81118       -0.62973       -2.06058
C          0.74122       -3.13594       -2.32736
C          0.09866       -5.44670       -1.95405
H          3.32864       -0.33962       -0.37395
C          2.63632       -0.90135       -1.01058
C          0.16001       -2.78024       -1.09463
C         -0.49094       -5.09386       -0.73168
N          1.26802       -0.57155       -0.60687
C          0.19014       -1.38961       -0.62176
H         -2.47384       -1.86195       -0.72957
C         -0.45100       -3.76309       -0.30077
C          0.90534        0.64973       -0.08231
N         -0.84752       -0.68757       -0.10599
H          2.80724       -1.97277       -0.87372
C         -0.41602        0.57687        0.23370
H          1.61499        1.46055        0.03032
C         -2.23346       -1.13595        0.05222
H         -0.87972       -3.53047        0.67261
H         -1.08162        1.31653        0.66228
H         -2.38625       -1.59403        1.03875
H         -2.88968       -0.26519       -0.04278
O         -1.10643       -5.97553        0.08609
H          0.07855       -6.48614       -2.28960
H         -1.09070       -6.87556       -0.26363
