10
3-BUTENENITRILE.gamout	Energy:    -209.8683370
N         -2.25656        0.44932       -0.00858
C          0.05588       -0.79292       -0.11242
C          1.19146        0.03778        0.44514
C          2.26204        0.40636       -0.25970
C         -1.23942       -0.10129       -0.05598
H         -0.04696       -1.73291        0.45743
H          0.25740       -1.07380       -1.15764
H          1.09747        0.32923        1.49519
H          3.06055        0.99578        0.19314
H          2.37984        0.13561       -1.31181
