12
3-CHLORO-1-PROPANOL.gamout	Energy:    -653.5166511
Cl         2.62424        1.65631        1.23274
O         -2.41192        0.66250        0.94201
C         -0.06416        1.03385        1.05580
C         -1.16162        0.00918        0.78231
C          1.32253        0.42915        0.90976
H         -0.19600        1.43327        2.07181
H         -0.18298        1.87486        0.35723
H         -1.05814       -0.39368       -0.24283
H         -1.07215       -0.84207        1.48345
H          1.49495       -0.38794        1.62175
H          1.50559        0.05625       -0.10590
H         -3.13129        0.04470        0.77594
