21
3-DIMETHYLAMINOPROPYLAMINE.gamout	Energy:    -308.0373289
N          1.44007       -0.50955        1.71912
N         -2.50869       -0.31868       -0.22940
C          0.76346        0.76029        1.47419
C         -0.36758        0.68799        0.44502
C         -1.46842       -0.31152        0.79812
C          2.16760       -1.00943        0.56590
C          2.27787       -0.45976        2.90353
H          0.34660        1.09872        2.43564
H          1.48731        1.54534        1.15366
H          0.01875        0.45210       -0.55766
H         -0.80426        1.69818        0.36559
H         -1.85061       -0.07885        1.81357
H         -1.03672       -1.32048        0.85681
H          1.49274       -1.16609       -0.28492
H          2.62485       -1.97846        0.80915
H          2.97869       -0.31996        0.23829
H          3.11921        0.26367        2.80795
H          2.70735       -1.45196        3.10119
H          1.67818       -0.16876        3.77746
H         -2.98554        0.57790       -0.29235
H         -3.21436       -1.02786       -0.05305
