14
3-ETHYL_ACROLEIN.gamout	Energy:    -270.1976013
C          2.89248        2.11736        3.77044
C          1.94486        1.69854        2.91217
C          1.07605        2.57402        2.06560
C          3.71158        1.17589        4.56506
C          1.22331        2.28518        0.56144
O          3.61843       -0.03505        4.52882
H          3.08981        3.18470        3.91177
H          1.80237        0.61552        2.81599
H          0.02381        2.40162        2.35450
H          1.29392        3.63282        2.27246
H          4.46230        1.65666        5.23926
H          0.54026        2.91927       -0.02175
H          0.98892        1.23484        0.33283
H          2.25026        2.48289        0.22218
