19
3-ETHYLCYCLOPENTENE.gamout	Energy:    -273.5761246
C          2.06950        3.30979        0.97724
C          2.75233        1.96155        1.22035
C          2.59020        1.38390        2.64464
C          1.12720        1.01234        3.04251
C          3.01833        2.32282        3.75305
C          0.88898        1.57784        4.47163
C          2.10597        2.43543        4.72501
H          2.23045        3.64735       -0.05713
H          0.98310        3.25453        1.13947
H          2.46355        4.08451        1.65079
H          2.37117        1.21887        0.50011
H          3.82950        2.06106        1.00698
H          3.22372        0.47893        2.68304
H          0.41381        1.45694        2.33471
H          0.96711       -0.07364        3.00320
H          3.98677        2.82829        3.74997
H         -0.04996        2.14976        4.54911
H          0.81707        0.77376        5.22482
H          2.22650        3.04346        5.62405
