24
3-ETHYL-O-XYLENE.gamout	Energy:    -388.9815917
C          1.57879        0.71281        3.79555
C          0.91770        1.77131        4.69511
C          2.77681        1.23684        3.02439
C          4.05908        1.36007        3.60831
C          2.58905        1.63968        1.69220
C          4.33398        0.94738        5.03723
C          5.12786        1.88553        2.84112
C          3.63932        2.15990        0.93895
C          6.50751        2.02462        3.44110
C          4.90393        2.28031        1.51665
H          1.85985       -0.16080        4.40288
H          0.83294        0.34734        3.07374
H          1.61883        2.14758        5.45362
H          0.04367        1.35285        5.21673
H          0.58147        2.63210        4.09891
H          1.59871        1.53868        1.24297
H          5.13781        0.19568        5.08648
H          3.45812        0.52288        5.53478
H          4.67088        1.80510        5.64155
H          3.47607        2.46689       -0.09588
H          6.50106        2.67309        4.33188
H          7.20965        2.45700        2.71708
H          6.91291        1.05154        3.76193
H          5.73317        2.68499        0.93262
