24
3-ETHYL-3-PENTANOL.gamout	Energy:    -351.1423195
C         -1.27379       -0.73777        0.44100
C         -1.36039       -2.22212        0.07570
C          0.00142        0.00373       -0.01147
C         -0.02367        1.47162        0.48123
C         -1.24389        2.29858        0.06645
C          1.26973       -0.72171        0.50108
C          2.61434       -0.08955        0.12418
O         -0.03160       -0.03021       -1.44931
H         -2.12917       -0.21877       -0.01229
H         -1.37132       -0.61326        1.53155
H         -0.61942       -2.82949        0.61372
H         -2.35351       -2.61594        0.33466
H         -1.20880       -2.36936       -1.00212
H          0.07215        1.46839        1.57951
H          0.88128        1.97316        0.10419
H         -1.40436        2.24205       -1.01891
H         -2.16302        1.95989        0.56361
H         -1.09701        3.35424        0.33483
H          1.20071       -0.80555        1.59816
H          1.24706       -1.74614        0.10642
H          2.72217        0.01910       -0.96642
H          2.75858        0.89831        0.58210
H          3.44065       -0.73090        0.46089
H          0.72003        0.45991       -1.80068
