29
3-ETHYLHEPTANE.gamout	Energy:    -354.5184499
C          3.50940        1.89088        2.05235
C          2.15886        2.41462        2.58295
C          2.33848        3.73649        3.35812
C          1.13049        2.56800        1.44318
C          4.43359        1.29257        3.12092
C          1.15981        4.12459        4.25560
C          0.58463        1.24961        0.88775
C          5.74338        0.70591        2.57520
C          6.70806        1.73530        1.97916
H          4.01777        2.71669        1.52660
H          3.32777        1.11498        1.29206
H          1.76118        1.66237        3.29019
H          2.53486        4.54474        2.63219
H          3.24149        3.66748        3.98261
H          0.28134        3.17015        1.79963
H          1.59384        3.15253        0.62945
H          3.88301        0.49600        3.64863
H          4.67534        2.05228        3.88344
H          1.36144        5.06773        4.78383
H          0.23000        4.26123        3.68449
H          0.97438        3.34892        5.01453
H          0.08098        0.67032        1.67689
H          1.37904        0.61706        0.46558
H         -0.14828        1.43099        0.08807
H          6.25297        0.17041        3.39219
H          5.50744       -0.05711        1.81320
H          6.27866        2.23919        1.10094
H          7.64577        1.25848        1.65823
H          6.96441        2.51241        2.71681
