19
3-HEXANONE.gamout	Energy:    -310.6886426
O         -0.67808       -1.30502        0.03785
C          0.80320        0.57961       -0.00372
C          1.99119       -0.38130        0.01191
C         -0.56126       -0.09679        0.01217
C         -1.77333        0.82545       -0.00543
C          3.34187        0.33693       -0.00551
C         -3.11616        0.10297        0.01145
H          0.84317        1.23610       -0.89161
H          0.84691        1.27021        0.85773
H          1.91550       -1.02639        0.89990
H          1.91040       -1.05903       -0.85093
H         -1.68248        1.47574       -0.89293
H         -1.67956        1.51107        0.85478
H          4.17136       -0.38447        0.00512
H          3.45932        0.99390        0.87047
H          3.45364        0.96109       -0.90589
H         -3.94285        0.82680       -0.00095
H         -3.21868       -0.55740       -0.86001
H         -3.21455       -0.52281        0.90849
