24
3-METHYL-TRANS-3-HEPTENE.gamout	Energy:    -314.0425615
C          1.12976       -0.33269        0.40014
C          2.58440       -0.03521        0.04265
C          3.05711       -0.40101       -1.35163
C          2.25160       -0.97626       -2.26366
C          2.57803       -1.37797       -3.67721
C          1.74788       -0.61892       -4.72876
C          2.02553       -1.08043       -6.16077
C          4.50765       -0.06016       -1.59773
H          0.91824       -0.02045        1.43240
H          0.90631       -1.40694        0.32421
H          0.43322        0.20480       -0.25999
H          3.24722       -0.54228        0.76785
H          2.78096        1.04202        0.19465
H          1.21656       -1.17800       -1.97300
H          2.37889       -2.45902       -3.79761
H          3.64646       -1.24044       -3.89486
H          1.95422        0.45973       -4.63662
H          0.67603       -0.74471       -4.50097
H          3.08453       -0.93449       -6.42506
H          1.41884       -0.52100       -6.88762
H          1.79633       -2.15029       -6.28457
H          4.68814        1.01523       -1.43077
H          4.84375       -0.30442       -2.61036
H          5.15828       -0.59766       -0.88703
