21
3-METHYL-CIS-3-HEXENE.gamout	Energy:    -274.7833473
C          3.04790        1.58183        2.37810
C          3.79291        2.66270        2.08113
C          3.21299        4.00413        1.67601
C          5.30091        2.59874        2.12381
C          1.54874        1.45050        2.39430
C          3.25981        4.27036        0.16180
C          0.99593        1.04638        3.76966
H          3.58601        0.66711        2.65626
H          2.17420        4.08983        2.02188
H          3.77413        4.79990        2.19562
H          5.70208        3.31465        2.86124
H          5.74404        2.87068        1.15167
H          5.65926        1.59535        2.38902
H          1.06957        2.38207        2.06307
H          1.25459        0.68235        1.65668
H          2.85884        5.26829       -0.07088
H          2.66243        3.52558       -0.38393
H          4.28675        4.22516       -0.22865
H         -0.09447        0.90483        3.73275
H          1.21700        1.81626        4.52370
H          1.44615        0.10318        4.11554
