18
3-METHYL-1-BUTANOL.gamout	Energy:    -272.6221362
C          2.49746        0.72107        1.53797
C          2.61628        1.73101        2.69549
C          1.06574        0.38096        1.12410
C          2.00766        1.20844        4.00523
C          4.07926        2.14748        2.89784
O          1.00585       -0.43382       -0.04145
H          3.02828       -0.20901        1.81438
H          3.01233        1.12366        0.65154
H          2.05340        2.63459        2.39825
H          0.52421        1.30296        0.86445
H          0.51468       -0.09785        1.95183
H          2.15201        1.93397        4.81895
H          2.48734        0.26467        4.31210
H          0.92845        1.02277        3.91626
H          4.17076        2.90764        3.68760
H          4.69689        1.28407        3.19331
H          4.50758        2.56541        1.97484
H          1.44479       -1.27437        0.13159
