18
3-METHYL-2-BUTANOL.gamout	Energy:    -272.6262612
C          1.86313        1.94211        3.39318
C          2.73423        1.89310        2.11844
C          1.92980        1.43150        0.89325
C          3.96889        1.00370        2.31997
C          0.67220        2.89739        3.29243
O          2.64416        2.25156        4.54964
H          1.48822        0.92343        3.58780
H          3.08137        2.92659        1.92757
H          1.11885        2.12434        0.63344
H          1.48706        0.43769        1.06827
H          2.58547        1.34689        0.01473
H          4.57157        1.33806        3.17266
H          4.59872        1.01041        1.41877
H          3.66898       -0.03952        2.50949
H          1.00933        3.91252        3.02463
H         -0.05372        2.57339        2.53484
H          0.15532        2.94832        4.25991
H          2.89972        3.18202        4.52395
