18
3-METHYL-1-PENTENE.gamout	Energy:    -235.5176121
C          3.62712        1.61508        2.81516
C          2.96674        2.96045        2.41971
C          1.53286        2.76364        1.98057
C          3.82724        3.70761        1.39619
C          3.00131        0.90424        4.01736
C          0.99092        3.10864        0.80784
H          4.68856        1.81466        3.03556
H          3.61549        0.94831        1.93707
H          2.93298        3.57410        3.34094
H          0.88418        2.27704        2.71584
H          3.92872        3.13186        0.46350
H          3.39694        4.68716        1.14484
H          4.83716        3.87670        1.79498
H          1.95601        0.61871        3.83313
H          3.55405       -0.01674        4.25229
H          3.02339        1.54438        4.91301
H          1.56067        3.60227        0.01872
H         -0.06015        2.90537        0.59650
