21
3-METHYL-CIS-2-HEXENE.gamout	Energy:    -274.7822866
C          3.68597        1.35366        1.27761
C          4.02352        0.85755        2.70011
C          5.23720        1.52986        3.34630
C          3.35425        2.83425        1.17462
C          4.46069        3.73002        0.67161
C          2.14886        3.34016        1.49262
C          0.93781        2.59224        1.97476
H          4.53984        1.13092        0.61668
H          2.84475        0.75470        0.89630
H          3.14406        1.00249        3.34684
H          4.19539       -0.23038        2.65060
H          6.13929        1.40640        2.72683
H          5.06980        2.60710        3.48957
H          5.44806        1.09308        4.33327
H          4.15578        4.78524        0.65626
H          5.36685        3.64341        1.29238
H          4.75679        3.44400       -0.35209
H          2.01297        4.42265        1.39032
H          1.07459        1.50368        1.96412
H          0.67519        2.88399        3.00575
H          0.06009        2.82860        1.35112
