18
3-PENTANOL.gamout	Energy:    -272.6263180
C          2.57275       -0.04708       -0.01624
C          1.50846        1.04803        0.08302
C          1.47104        1.97384       -1.14010
O          0.26426        0.36974        0.26829
C          4.01620        0.46113       -0.01864
C          0.40219        3.06730       -1.07036
H          2.41944       -0.72503        0.83634
H          2.37502       -0.64094       -0.92347
H          1.72260        1.66287        0.98102
H          2.45908        2.44702       -1.24879
H          1.31398        1.35006       -2.03534
H         -0.43607        1.00681        0.44260
H          4.72321       -0.37991       -0.00826
H          4.24170        1.06643       -0.90858
H          4.22320        1.08001        0.86849
H          0.46169        3.72816       -1.94605
H         -0.61491        2.64684       -1.05604
H          0.52609        3.69362       -0.17266
