21
4,4-DIMETHYL-1-PENTENE.gamout	Energy:    -274.7786502
C          3.37370        2.62421        2.38252
C          1.93551        2.03282        2.48630
C          3.51821        3.87571        1.56149
C          0.97026        3.05582        3.11468
C          2.00107        0.78517        3.38628
C          1.42562        1.62903        1.09122
C          4.24516        3.98652        0.44503
H          3.72334        2.83247        3.40909
H          4.04224        1.84906        1.97517
H          2.99154        4.76306        1.92880
H         -0.02633        2.61141        3.25395
H          0.84719        3.94527        2.48094
H          1.32965        3.38763        4.10063
H          2.68617        0.03127        2.97016
H          1.00945        0.31937        3.48506
H          2.35436        1.04075        4.39684
H          2.08218        0.87391        0.63310
H          1.38719        2.49235        0.41284
H          0.41471        1.20020        1.15621
H          4.31821        4.93011       -0.09862
H          4.79910        3.13699        0.03635
