29
4,4-DIMETHYLHEPTANE.gamout	Energy:    -354.5160113
C          4.72570        1.71851        1.65030
C          4.08428        2.66808        2.69932
C          3.01862        3.56132        2.00503
C          5.13617        3.61198        3.31359
C          3.43156        1.85226        3.83406
C          5.95343        0.88762        2.08830
C          1.84351        2.86365        1.30780
C          7.31272        1.50742        1.74213
C          0.85155        3.86022        0.70055
H          3.94294        1.02559        1.30973
H          5.00106        2.31492        0.76414
H          2.61080        4.25272        2.76192
H          3.53404        4.19781        1.26477
H          5.64013        4.20513        2.53649
H          4.66262        4.31507        4.01506
H          5.90461        3.06123        3.87266
H          2.91935        2.51813        4.54476
H          2.69274        1.13597        3.44973
H          4.18072        1.28209        4.40064
H          5.89712       -0.09839        1.60166
H          5.90767        0.68201        3.16889
H          2.21618        2.20077        0.51223
H          1.31010        2.21854        2.02311
H          7.40375        1.66171        0.65589
H          7.45913        2.48103        2.22838
H          8.13721        0.84989        2.05594
H          0.01954        3.34390        0.20044
H          0.42274        4.51568        1.47421
H          1.34170        4.50489       -0.04552
