19
4,4-DIMETHYL-2-PENTYNE.gamout	Energy:    -273.5418584
C          2.39351        3.23039        0.73165
C          2.15999        2.17701        1.83939
C          0.79438        2.43184        2.51850
C          2.17390        0.76050        1.21882
C          3.23667        2.28082        2.84552
C          4.12231        2.36846        3.67062
C          5.18842        2.47306        4.66504
H          3.35999        3.06788        0.23551
H          2.39085        4.24625        1.14984
H          1.59909        3.16614       -0.02749
H          0.76064        3.43376        2.96779
H         -0.01624        2.35668        1.77780
H          0.60672        1.69562        3.31199
H          3.13642        0.55620        0.73036
H          2.01186       -0.00628        1.98861
H          1.37684        0.66905        0.46522
H          5.87803        3.29726        4.42476
H          4.77845        2.66122        5.66947
H          5.77924        1.54512        4.71246
