24
4,4-DIMETHYL-CIS-2-HEXENE.gamout	Energy:    -314.0390300
C          2.65006        2.58418        2.09052
C          1.62094        2.09606        1.38830
C          3.40675        3.88256        1.86287
C          0.92022        0.79876        1.67392
C          4.87031        3.57169        1.42291
C          5.72224        2.72318        2.37075
C          2.76250        4.74399        0.76359
C          3.40438        4.68322        3.18519
H          3.00298        1.99413        2.94436
H          1.23451        2.66071        0.53389
H          1.35335        0.28319        2.54287
H         -0.15212        0.96200        1.87204
H          0.97834        0.11824        0.80824
H          4.82597        3.07268        0.44192
H          5.37855        4.53620        1.25589
H          5.83660        3.19340        3.35803
H          5.29540        1.72148        2.51944
H          6.73109        2.59032        1.95431
H          1.72046        4.99391        1.00870
H          3.31527        5.68633        0.64502
H          2.77016        4.22990       -0.20821
H          3.81168        4.09604        4.01963
H          4.00839        5.59855        3.08856
H          2.38045        4.97677        3.45679
