26
4-(MMIM)PHO.gamout	Energy:    -610.3138304
N          1.11894       -0.38885       -0.13110
N         -1.06263       -0.50472        0.04180
C          0.06620       -1.27754       -0.12024
C          0.64158        0.90255        0.02656
C         -0.70647        0.83196        0.12214
C          2.50396       -0.68451       -0.46149
C         -2.41362       -0.97767        0.29800
H          1.30389        1.75825        0.04643
H         -1.44457        1.61271        0.25067
H          2.53966       -1.49150       -1.20281
H          2.95823        0.21841       -0.88353
H          3.07973       -0.99222        0.42214
H         -2.93831       -0.21947        0.88970
H         -2.97038       -1.15006       -0.63339
H         -2.37336       -1.91649        0.86239
C          0.13000       -2.68999       -0.24364
C          1.24423       -3.44338        0.25563
C          1.30432       -4.80607        0.15540
C          0.24492       -5.59138       -0.47010
C         -0.87502       -4.80404       -0.97658
C         -0.92230       -3.44165       -0.86449
H          2.04351       -2.93076        0.79141
H          2.15160       -5.35969        0.56329
H         -1.76172       -2.91674       -1.32144
H         -1.67731       -5.35266       -1.47283
O          0.29252       -6.83013       -0.56415
