17
4-AMINO-2-NITROPHENOL.gamout	Energy:    -566.6496700
O          1.48462       -2.15338        0.03213
O          1.88394        1.97119        0.04526
O          2.87093        0.04714        0.05280
N          1.86677        0.74263        0.04263
N         -2.97292        1.23244       -0.01328
C          0.55311        0.08356        0.02590
C         -1.86895        0.40411       -0.00210
C         -0.56944        0.92203        0.01457
C          0.41572       -1.32195        0.02122
C         -2.01032       -1.00015       -0.00707
C         -0.89546       -1.82747        0.00440
H         -0.39282        1.99576        0.01902
H         -3.00697       -1.44593       -0.01991
H         -1.03621       -2.91135        0.00024
H         -3.90732        0.85902       -0.02543
H         -2.87409        2.23415       -0.00971
H          1.18291       -3.06935        0.02651
