17
4-CHLORO-3-NITROBENZOTRIFLUORIDE.gamout	Energy:   -1232.3060423
N          7.22501        2.95965       -0.88751
O          6.94749        4.05201       -0.42460
O          8.24119        2.68952       -1.51071
C          6.27746        1.85279       -0.65223
C          6.83328        0.61330       -0.33296
C          4.88599        2.02194       -0.73039
C          6.00020       -0.46721       -0.05228
Cl         4.13584        3.51485       -1.20214
C          4.06102        0.92179       -0.46456
C          6.58890       -1.81758        0.28774
C          4.60937       -0.30948       -0.11795
F          6.66688       -2.60904       -0.80518
F          5.83202       -2.47142        1.19069
F          7.83053       -1.71466        0.79231
H          7.91683        0.51578       -0.29793
H          2.98113        1.04436       -0.53338
H          3.95270       -1.15094        0.10245
