22
4-ETHYLCYCLOHEXENE.gamout	Energy:    -312.8420952
C          1.06887        1.12708        1.69809
C          0.93412        1.78332        3.04877
C          2.21679        1.10463        1.00717
C          2.12987        2.69224        3.36942
C          3.47743        2.03068        3.01574
C          3.50210        1.72339        1.50392
C          3.78305        0.77135        3.85230
C          3.86309        1.00831        5.36313
H          0.18176        0.64190        1.28069
H          0.81920        1.00426        3.82457
H         -0.00217        2.36367        3.08745
H          2.24199        0.61859        0.02752
H          2.10661        2.99460        4.42620
H          2.03656        3.62123        2.78395
H          4.27624        2.76204        3.22752
H          4.34756        1.05643        1.26544
H          3.69611        2.65151        0.93650
H          4.74599        0.36142        3.50616
H          3.03448       -0.00768        3.63821
H          4.58914        1.80117        5.60266
H          4.18320        0.09519        5.88528
H          2.89336        1.30447        5.78798
