19
4-HYDROXY-PHENYLACETIC_ACID.gamout	Energy:    -534.7108894
O         -1.29598       -1.39517        3.31685
O         -0.74697       -1.92140       -3.60580
O          0.71945       -0.30926       -3.07031
C         -1.49497       -0.48435       -0.76144
C         -1.55073       -0.13725       -2.24177
C         -2.48578       -1.27829       -0.17168
C         -0.45211       -0.01053        0.05312
C         -2.44486       -1.59420        1.18931
C         -0.39873       -0.31804        1.41038
C         -1.39713       -1.11646        1.98458
C         -0.39843       -0.76146       -3.00721
H         -2.49959       -0.48095       -2.67065
H         -1.47164        0.95053       -2.38232
H         -3.30884       -1.65856       -0.77969
H          0.33488        0.60334       -0.38786
H         -3.22942       -2.21420        1.63079
H          0.41159        0.05068        2.03999
H         -2.03458       -1.94114        3.60943
H          0.04490       -2.28218       -4.03643
