24
4-METHYL-2-ETHYL-1-PENTENE.gamout	Energy:    -314.0405783
C          0.46261       19.34587        1.36384
C          0.85466       19.45922       -0.11848
C          0.90221       20.88060       -0.64372
C          1.91808       21.82036       -0.02786
C          0.06518       21.28945       -1.60886
C          3.39734       21.39573       -0.18371
C          3.81498       21.31786       -1.65754
C          4.31169       22.34321        0.60292
H          0.40741       18.29069        1.66792
H          1.19265       19.84069        2.02034
H         -0.51964       19.80588        1.54483
H          0.14398       18.88072       -0.72666
H          1.83948       18.98334       -0.26106
H          1.79139       22.82310       -0.46556
H          1.70285       21.92648        1.04901
H          0.08918       22.31188       -1.99155
H         -0.67482       20.61514       -2.04496
H          3.51160       20.38999        0.25448
H          4.85551       20.97553       -1.75427
H          3.17445       20.63092       -2.22729
H          3.74129       22.30989       -2.13087
H          5.36232       22.02480        0.53909
H          4.03416       22.37758        1.66702
H          4.24829       23.36884        0.20629
