24
4-METHYL-3-ETHYL-CIS-2-PENTENE.gamout	Energy:    -314.0384146
C          0.85324       29.78075       -0.43667
C          1.08964       30.81526        0.67677
C          0.95450       32.26371        0.22229
C          1.99886       32.85327       -0.38955
C         -0.36103       32.97640        0.51113
C          2.11714       34.24178       -0.94987
C         -1.59219       32.21725       -0.01558
C         -0.50957       33.28032        2.01571
H          0.97647       28.75706       -0.05145
H         -0.15677       29.86305       -0.86051
H          1.57078       29.92600       -1.25671
H          2.10035       30.66327        1.08588
H          0.39656       30.61105        1.50694
H          2.90585       32.24683       -0.50415
H         -0.34026       33.94460       -0.00773
H          1.19774       34.83257       -0.85962
H          2.92260       34.79999       -0.44336
H          2.38954       34.20810       -2.01811
H         -2.50527       32.80201        0.16839
H         -1.51825       32.03522       -1.09676
H         -1.71884       31.24704        0.48649
H         -1.43590       33.84348        2.20579
H          0.33608       33.87656        2.38566
H         -0.55690       32.35665        2.61184
