32
4-METHYL-3-ETHYLHEPTANE.gamout	Energy:    -393.7710474
C          0.23426       29.67118        0.73380
C          1.43152       30.57217        0.42220
C          1.02193       32.00890        0.08152
C          2.15794       33.03498       -0.11277
C          3.13102       32.76069       -1.30255
C          1.56258       34.45031       -0.20518
C          4.21469       31.69163       -0.98258
C          2.38654       32.46736       -2.62028
C          5.64701       32.14457       -1.28724
C          3.26173       32.49297       -3.87623
H          0.55544       28.64759        0.97463
H         -0.33897       30.05407        1.59215
H         -0.45446       29.61192       -0.12343
H          2.00473       30.13374       -0.40771
H          2.11193       30.58559        1.29007
H          0.38081       32.38209        0.89775
H          0.37780       32.00143       -0.81373
H          2.77551       33.01315        0.80220
H          3.66994       33.71263       -1.45217
H          2.35440       35.21055       -0.27137
H          0.95150       34.67846        0.68027
H          0.91417       34.56421       -1.08694
H          4.16212       31.42036        0.08139
H          4.00250       30.76307       -1.53537
H          1.89636       31.48323       -2.54826
H          1.57709       33.20247       -2.74739
H          6.37390       31.35446       -1.04758
H          5.77504       32.40875       -2.34621
H          5.90866       33.03193       -0.69090
H          2.65451       32.32348       -4.77704
H          3.76472       33.46544       -3.99080
H          4.03893       31.71573       -3.85560
