19
4-METHYLTHIACYCLOHEXANE.gamout	Energy:    -633.5700385
C          0.62000        0.94392        0.85359
C          1.05592       -0.26767        1.69164
C          2.33106       -0.94406        1.14321
C         -0.08384       -1.29055        1.89020
C          2.14264       -1.66771       -0.19151
C         -0.48590       -2.04745        0.62280
S          0.89809       -3.01430       -0.09934
H          1.43129        1.68357        0.78064
H          0.33574        0.66745       -0.17162
H         -0.24764        1.44265        1.31059
H          1.31288        0.11079        2.69489
H          3.12305       -0.18579        1.02477
H          2.69474       -1.67158        1.88576
H         -0.97241       -0.77041        2.28617
H          0.22116       -2.02400        2.65306
H          3.07565       -2.15572       -0.50414
H          1.85982       -0.96829       -0.99260
H         -1.27014       -2.78474        0.84237
H         -0.88732       -1.36648       -0.14220
