19
4-METHYL-1-HEXYNE.gamout	Energy:    -273.5309120
C         -0.11080       19.82000        0.12362
C          0.90377       19.16439        0.02264
C          2.12278       18.36505       -0.10777
C          2.38094       17.82244       -1.53653
C          2.53843       18.96792       -2.54346
C          3.60570       16.88956       -1.56650
C          3.45792       15.58667       -0.77572
H         -1.00630       20.40127        0.21906
H          2.98902       18.97454        0.20515
H          2.06211       17.52919        0.60595
H          1.49540       17.23091       -1.82607
H          2.65635       18.57746       -3.56458
H          1.66537       19.63336       -2.53058
H          3.42901       19.57354       -2.31058
H          3.81543       16.64253       -2.61927
H          4.48862       17.44661       -1.20747
H          4.33904       14.94351       -0.91201
H          3.35057       15.76317        0.30412
H          2.57571       15.02025       -1.11155
