21
4-METHYL-CIS-2-HEXENE.gamout	Energy:    -274.7789350
C          3.64758        2.63619        1.42548
C          4.95632        2.28078        0.69494
C          3.12806        1.44506        2.19517
C          3.79947        3.89124        2.32442
C          1.93089        0.84885        2.08343
C          0.79586        1.21448        1.16920
C          4.80934        3.78456        3.47191
H          2.90794        2.90243        0.65589
H          5.73116        1.94045        1.39761
H          4.79030        1.47092       -0.02898
H          5.35227        3.15186        0.15093
H          3.82674        1.02081        2.92434
H          2.80956        4.13976        2.73815
H          4.08253        4.73795        1.67662
H          1.74296       -0.01381        2.73198
H          1.02958        2.05942        0.51006
H          0.51396        0.35608        0.53712
H         -0.10356        1.47801        1.75052
H          4.84077        4.72550        4.03997
H          4.54364        2.98392        4.17732
H          5.82711        3.58920        3.10461
