24
4-METHYL-TRANS-3-HEPTENE.gamout	Energy:    -314.0423264
C          1.32219        1.10090        0.13720
C          2.01530       -0.13596       -0.45572
C          2.53443       -1.08131        0.59350
C          3.80087       -1.47317        0.82718
C          4.10812       -2.44662        1.94789
C          4.60527       -3.82699        1.48085
C          4.87278       -4.78821        2.64087
C          4.99741       -1.00104        0.03583
H          0.90255        1.73700       -0.65651
H          2.02981        1.70535        0.72358
H          0.49729        0.81116        0.80608
H          2.81975        0.18232       -1.13273
H          1.28814       -0.67834       -1.08640
H          1.76125       -1.49059        1.25556
H          3.20730       -2.58722        2.56568
H          4.87468       -2.00317        2.60996
H          5.52745       -3.71284        0.88962
H          3.85537       -4.26119        0.79999
H          5.64175       -4.38625        3.31862
H          5.22462       -5.76469        2.27771
H          3.96258       -4.96047        3.23600
H          5.76914       -0.59910        0.71295
H          4.75029       -0.22362       -0.69549
H          5.46847       -1.83317       -0.51250
