24
4-METHYL-CIS-3-HEPTENE.gamout	Energy:    -314.0424242
C          0.67340        0.01592        1.18431
C          1.77254       -0.16090        0.12388
C          2.74055       -1.26188        0.46659
C          4.06953       -1.17791        0.66013
C          4.86259        0.10673        0.53345
C          5.57632        0.26240       -0.82396
C          6.42637        1.53148       -0.91158
C          4.87880       -2.40364        1.01103
H         -0.05012        0.78795        0.88230
H          1.10609        0.31020        2.15196
H          0.11929       -0.92277        1.33857
H          2.29630        0.79320       -0.02542
H          1.29304       -0.39843       -0.84252
H          2.27940       -2.25061        0.58036
H          5.62223        0.13791        1.33438
H          4.21578        0.98126        0.69295
H          4.81805        0.26472       -1.62319
H          6.21288       -0.61755       -1.00838
H          5.81112        2.43239       -0.76182
H          6.91466        1.61860       -1.89311
H          7.21520        1.53679       -0.14320
H          4.25648       -3.30786        1.04411
H          5.36365       -2.28384        1.99491
H          5.68809       -2.57545        0.28236
