21
4-METHYL-TRANS-2-HEXENE.gamout	Energy:    -274.7822336
C          5.70067        0.82254        1.29296
C          4.30369        1.28137        0.86685
C          3.43200        1.86188        2.00534
C          3.09952        0.81142        3.08175
C          2.16648        2.46183        1.44479
C          1.80499        3.74696        1.53487
C          0.54445        4.34259        0.97859
H          6.26879        1.65078        1.74395
H          5.66226        0.00400        2.02583
H          6.27187        0.45773        0.42687
H          4.40165        2.05094        0.08558
H          3.76315        0.44046        0.39891
H          4.00588        2.67377        2.48545
H          4.00937        0.37278        3.51447
H          2.52399        1.26370        3.90112
H          2.49856       -0.00728        2.65526
H          1.49863        1.76116        0.92524
H          2.47515        4.43943        2.05945
H          0.76825        5.13956        0.24993
H         -0.07324        3.58515        0.47532
H         -0.06184        4.80577        1.77454
