24
5,5-DIMETHYL-TRANS-2-HEXENE.gamout	Energy:    -314.0424411
C         -0.02424       21.05270       -0.02365
C          1.51475       21.01323       -0.05768
C          2.02739       22.45143       -0.37115
C          2.04485       20.55205        1.31099
C          1.96603       20.02465       -1.14938
C          3.51827       22.61351       -0.48007
C          4.27860       23.35183        0.33810
C          5.76432       23.53043        0.22467
H         -0.43821       20.06109        0.21212
H         -0.43448       21.36595       -0.99544
H         -0.38785       21.75790        0.73893
H          1.56328       22.77274       -1.32040
H          1.64679       23.13232        0.40694
H          3.14306       20.53142        1.32863
H          1.68133       19.54202        1.55220
H          1.71027       21.22876        2.11181
H          1.54514       19.02535       -0.96309
H          1.62779       20.35024       -2.14480
H          3.05953       19.92095       -1.17924
H          4.00940       22.09063       -1.30891
H          3.78946       23.88238        1.16428
H          6.17509       22.96596       -0.62455
H          6.02843       24.59256        0.09050
H          6.27674       23.19352        1.14105
