24
5-ETHYL-M-XYLENE.gamout	Energy:    -388.9856479
C          1.01587        4.24424        1.93738
C          1.75843        4.01029        0.61165
C          3.23083        3.71003        0.79921
C          3.67659        2.38809        0.96334
C          4.17222        4.74434        0.85170
C          5.02670        2.09416        1.18346
C          5.53563        4.48595        1.06856
C          5.50251        0.67169        1.36106
C          5.94305        3.15745        1.23460
C          6.53584        5.61778        1.09502
H         -0.04871        4.45804        1.75895
H          1.08417        3.35882        2.58623
H          1.44810        5.09351        2.48686
H          1.28184        3.17600        0.07356
H          1.64574        4.89916       -0.02877
H          2.95121        1.57186        0.91800
H          3.83892        5.77710        0.71931
H          6.24630        0.40296        0.59470
H          5.98440        0.53414        2.34184
H          4.67320       -0.04436        1.29076
H          7.00107        2.94120        1.40456
H          7.49610        5.29696        1.52022
H          6.73107        5.99577        0.07820
H          6.16597        6.46613        1.69014
