22
5-METHYLINDAN.gamout	Energy:    -387.7825625
C         -1.70918        1.68745       -0.10509
C         -0.46403        0.83228       -0.05123
H         -1.67979        2.37942       -0.96152
H         -1.81028        2.30231        0.80318
H         -2.61546        1.07491       -0.19921
C         -0.54182       -0.56839       -0.10803
C          0.60928       -1.36644       -0.06603
C          1.85995       -0.75803        0.02916
C          0.80448        1.43197        0.05292
C          1.95267        0.64268        0.08964
C          3.40203        1.06796        0.21103
C          4.18051       -0.19790       -0.22553
H          3.63124        1.32833        1.25980
H          3.64416        1.95337       -0.39474
C          3.23770       -1.38342        0.09969
H          3.36185       -2.23153       -0.58943
H          3.42803       -1.77057        1.11672
H          5.16169       -0.28634        0.26095
H          4.35290       -0.15992       -1.31198
H          0.88371        2.52129        0.10257
H          0.52035       -2.45429       -0.11020
H         -1.52157       -1.04375       -0.19036
