21
5-METHYL-CIS-2-HEXENE.gamout	Energy:    -274.7808563
C          1.04832        2.64370        3.10272
C          1.80490        1.96246        1.95423
C          0.83260        1.37669        0.92393
C          2.77773        0.86722        2.45680
C          3.84933        1.35135        3.39609
C          5.16109        1.48025        3.14155
C          5.88937        1.17122        1.86473
H          0.35925        3.40890        2.71680
H          1.73251        3.13646        3.80681
H          0.45104        1.90870        3.66631
H          2.41370        2.73218        1.44815
H          0.16173        2.15082        0.52303
H          0.20363        0.59270        1.37609
H          1.37033        0.92512        0.07651
H          3.23204        0.37695        1.58415
H          2.18031        0.08991        2.96835
H          3.51361        1.62971        4.39983
H          5.79146        1.85320        3.95609
H          5.22972        0.79531        1.07314
H          6.67663        0.41848        2.03770
H          6.39918        2.07011        1.47986
