24
5-METHYL-1-HEPTENE.gamout	Energy:    -314.0349441
C          4.03732        2.52104        2.16641
C          5.28182        2.12300        1.34917
C          6.56328        2.14189        2.20706
C          5.11460        0.75475        0.67357
C          2.77183        2.78160        1.32877
C          7.00677        3.52435        2.69264
C          1.60089        3.22719        2.15943
C          0.94019        4.38043        2.01849
H          3.82906        1.72950        2.90826
H          4.25119        3.43130        2.74496
H          5.40894        2.87989        0.55271
H          7.38036        1.69791        1.61566
H          6.42197        1.47086        3.07267
H          4.22019        0.71218        0.03769
H          5.02862       -0.04415        1.42744
H          5.98161        0.52291        0.03771
H          2.49072        1.86018        0.79169
H          2.98947        3.54077        0.55977
H          7.95289        3.45911        3.24910
H          7.16574        4.20835        1.84419
H          6.26703        3.98834        3.36022
H          1.27757        2.52740        2.93978
H          1.22169        5.11009        1.25428
H          0.09495        4.63758        2.65916
