24
5-METHYL-CIS-2-HEPTENE.gamout	Energy:    -314.0362945
C          1.06369       -0.35282       -0.48913
C          2.25500        0.23583        0.21111
C          2.79690        1.45115        0.03617
C          2.33008        2.55271       -0.87627
C          3.41671        3.23355       -1.74462
C          3.99486        2.32505       -2.85088
C          4.99966        1.26119       -2.39749
C          2.84577        4.51961       -2.35933
H          1.32450       -1.31286       -0.96463
H          0.65241        0.30748       -1.26255
H          0.25618       -0.57112        0.23003
H          2.72676       -0.41589        0.95441
H          3.66753        1.70186        0.65257
H          1.88381        3.33990       -0.24138
H          1.51985        2.20139       -1.53268
H          4.24795        3.52429       -1.07638
H          4.49190        2.96942       -3.59458
H          3.15779        1.84310       -3.38527
H          5.85229        1.72598       -1.87851
H          5.39720        0.71224       -3.26397
H          4.54907        0.53126       -1.71395
H          2.01917        4.29140       -3.05149
H          3.61340        5.06436       -2.92777
H          2.45479        5.19616       -1.58505
