24
6-METHYL-1-HEPTENE.gamout	Energy:    -314.0353385
C          3.48737        1.85024        2.27974
C          4.65968        1.15944        2.98537
C          2.10536        1.22292        2.54238
C          6.03900        1.78646        2.69305
C          1.67716        1.33020        4.01310
C          1.04730        1.85047        1.62492
C          6.48779        1.66987        1.26154
C          7.55319        0.98037        0.84124
H          3.46047        2.91476        2.57670
H          3.66487        1.84111        1.19273
H          4.50343        1.18414        4.07457
H          4.68326        0.09501        2.69713
H          2.17592        0.14979        2.28715
H          6.79268        1.31643        3.34356
H          6.00256        2.85435        2.97490
H          1.61820        2.38617        4.32304
H          2.37611        0.81944        4.68948
H          0.68459        0.88190        4.16547
H          0.06245        1.38327        1.77116
H          0.94029        2.92738        1.83250
H          1.31943        1.73941        0.56467
H          5.88243        2.19544        0.51497
H          8.19779        0.44257        1.54199
H          7.82094        0.93249       -0.21569
