18
8-HYDROXYQUINOLINE.gamout	Energy:    -476.5633885
C         -3.49484       -3.42806        1.27482
C         -2.10321       -3.61624        1.00909
C         -4.38668       -4.52051        1.09535
C         -3.88080       -2.13082        1.70759
C         -1.62806       -4.89382        0.56844
N         -1.17699       -2.63470        1.15119
C         -2.51850       -5.93851        0.40263
O         -0.31042       -5.03517        0.32693
C         -3.89593       -5.73961        0.66929
C         -2.92780       -1.14364        1.84723
C         -1.57290       -1.44574        1.55406
H         -5.45057       -4.38507        1.29615
H         -4.93191       -1.92899        1.92585
H         -2.14823       -6.90763        0.06702
H          0.09667       -4.16732        0.51494
H         -4.58153       -6.57804        0.53170
H         -3.19899       -0.14008        2.17767
H         -0.80340       -0.67504        1.65912
