26
A-PINENE.gamout	Energy:    -390.1222112
C         -3.33045        2.62042        0.87734
C         -2.20667        2.08306       -0.09560
C         -2.91498        0.69257        0.09347
C         -2.08885        2.67492       -1.49996
H         -3.04117        2.70749       -2.03967
H         -1.37554        2.08913       -2.10072
H         -1.70111        3.70433       -1.44781
C         -0.81465        2.11897        0.55320
H         -0.10075        1.53661       -0.04933
H         -0.79266        1.71658        1.57293
H         -0.44118        3.15345        0.59550
C         -4.63744        2.82433        0.12047
C         -4.15910        0.57594       -0.80716
C         -5.02598        1.81020       -0.67190
H         -4.72994       -0.32796       -0.53104
H         -3.86428        0.42604       -1.86080
C         -3.36687        1.18838        1.49536
H         -2.28126       -0.20486        0.03211
H         -2.61047        1.03084        2.27096
H         -4.34093        0.84035        1.86151
H         -3.07457        3.47269        1.52226
H         -5.95596        1.86227       -1.24507
C         -5.41825        4.10768        0.28600
H         -4.92334        4.79384        0.98614
H         -6.43242        3.91904        0.67047
H         -5.53070        4.63813       -0.67216
