10
ACETONE.gamout	Energy:    -192.9117192
C          0.00000        0.00001        0.18289
O         -0.00000       -0.00003        1.39646
C          0.00000        1.29064       -0.61124
C         -0.00000       -1.29062       -0.61121
H         -0.00001        2.14877        0.07018
H          0.00000       -2.14871        0.07026
H          0.88462        1.33518       -1.26604
H         -0.88462        1.33513       -1.26602
H         -0.88462       -1.33516       -1.26600
H          0.88462       -1.33513       -1.26598
