7
ACETYL_CHLORIDE.gamout	Energy:    -613.0739598
C          2.10455        2.40066        0.92593
C          1.77232        0.93815        0.95896
Cl        -0.03280        0.64289        0.85024
O          2.51523        0.02097        1.04329
H          1.60726        2.90935        1.76358
H          1.71929        2.84490       -0.00243
H          3.19195        2.52526        0.99055
