15
ACETYLACETONE.gamout	Energy:    -345.3681809
C          2.44700        1.67881        0.98041
C          1.39408        2.34393        1.87829
C          3.65985        1.30016        1.84217
C          0.39002        1.42690        2.53271
O          1.40959        3.54264        2.05999
C          4.74010        2.34434        1.97977
O          3.70776        0.22261        2.39617
H          2.72770        2.40139        0.20351
H          2.05377        0.75679        0.53378
H          0.90721        0.57681        3.00360
H         -0.27312        1.00419        1.76070
H         -0.20475        1.97942        3.26829
H          4.29344        3.31557        2.24276
H          5.23772        2.48094        1.00593
H          5.47614        2.03590        2.73031
