14
ACETOIN.gamout	Energy:    -307.3063082
O         -0.53330        0.38149       -0.65593
O          0.52773       -2.96695       -0.29243
C         -0.79616       -1.00911       -0.50777
C          0.53943       -1.75512       -0.35680
C         -1.72014       -1.30742        0.67533
C          1.80950       -0.94578       -0.29536
H         -1.25046       -1.40982       -1.43342
H         -1.27892       -0.93314        1.61033
H         -1.88176       -2.38973        0.76357
H         -2.69641       -0.82038        0.52959
H          2.66267       -1.61416       -0.13904
H          1.74397       -0.19654        0.50732
H          1.93034       -0.37378       -1.22760
H         -1.36343        0.85873       -0.75842
