9
ACRYLIC_ACID.gamout	Energy:    -266.8509737
C          2.70253        2.33159        0.22203
C          1.82231        1.14338        0.36884
O          0.51935        1.46966        0.19537
O          2.18198        0.01414        0.61139
C          4.02880        2.22883        0.35578
H          2.21386        3.28238        0.00149
H         -0.00414        0.65959        0.30202
H          4.67851        3.09840        0.24874
H          4.48985        1.26395        0.57670
