13
ALANINE.gamout	Energy:    -323.3608128
C          2.18610        1.61487        0.37468
C          0.83566        1.04050       -0.04610
C          0.80385       -0.47708        0.11910
N         -0.24039        1.66723        0.71735
O          2.12567        2.94912        0.58737
O          3.21689        0.99485        0.46209
H          0.89039       -0.74639        1.18006
H          1.62702       -0.94622       -0.43333
H         -0.14637       -0.87362       -0.26705
H         -0.24005        2.67860        0.62532
H         -1.14911        1.31649        0.42919
H          3.02012        3.25568        0.80423
H          0.78026        1.26913       -1.13413
