12
ALANINATE-1.gamout	Energy:    -322.8112420
O          1.30782        1.16085        0.15723
O          1.28313       -1.10308        0.15415
N         -1.39115       -1.28394        0.58846
C         -0.77779        0.05603        0.59891
C         -1.55514        1.02523       -0.28740
C          0.76037        0.03727        0.25514
H         -0.82837        0.44218        1.63497
H         -2.61371        1.07908        0.01886
H         -1.10527        2.02390       -0.23106
H         -1.51602        0.69923       -1.34149
H         -0.59382       -1.92425        0.66309
H         -1.76415       -1.46281       -0.34446
