5
ALCL4-1.gamout	Energy:   -2082.7667256
Al        -1.99076       -1.83230       -1.13105
Cl        -3.99450       -0.98535       -0.90494
Cl        -0.98398       -0.87606       -2.82060
Cl        -0.84154       -1.48399        0.69647
Cl        -2.14581       -3.98261       -1.49698
