24
ALFA_D-FRUCTOPYRANOSE.gamout	Energy:    -686.3734470
C         -2.12958        2.41145       -1.93704
O         -2.40055        1.00883       -1.91646
C         -1.29329        2.81749       -3.14760
C         -1.41252        2.82591       -0.64136
H         -3.10987        2.90755       -1.98242
O          0.02824        2.27715       -3.06130
H         -1.26835        3.91090       -3.24050
H         -1.72410        2.39155       -4.06191
C          0.02769        2.30180       -0.65842
O         -2.07942        2.33558        0.51280
H         -1.39830        3.91967       -0.56449
H         -0.01949        1.19713       -0.66464
O          0.77921        2.73463        0.46177
C          0.80569        2.66506       -1.94211
O          1.96124        1.86370       -2.03825
C          1.30024        4.12282       -2.02990
H         -1.63065        0.53549       -2.25948
H         -2.41356        1.45153        0.29801
H          0.24524        2.59206        1.25452
O          0.23438        5.06234       -1.94214
H          1.83336        4.20793       -2.98989
H          2.01621        4.27339       -1.20754
H          0.59415        5.94903       -1.84217
H          2.34509        1.77459       -1.15605
