26
ALPHA-PINENE.gamout	Energy:    -390.1260124
C         -0.84584        0.65904        1.78814
C         -2.42066        0.97276       -0.10541
C          2.57316        1.24322       -0.29886
C         -0.45199       -0.53199       -1.56363
C          0.28100       -1.81643        0.46946
C          0.07123        0.67972       -0.73235
C         -0.91745       -1.12161       -0.20287
C          1.42970        0.28082       -0.17121
C          1.51273       -0.93934        0.38581
C         -1.07456        0.35804        0.30687
H          0.07572        1.67943       -1.18996
H         -1.81711       -1.75519       -0.18882
H         -1.28311       -0.27947       -2.23008
H          0.30203       -1.09712       -2.12632
H          0.04899       -2.05667        1.52206
H          0.46759       -2.78833       -0.01999
H          2.45587       -1.31138        0.79482
H         -0.87367        1.74514        1.96756
H         -1.64803        0.20999        2.39458
H          0.11333        0.28378        2.15905
H         -2.67789        0.79881       -1.15684
H         -3.23252        0.55388        0.50883
H         -2.41132        2.06095        0.05974
H          2.34966        2.19159        0.21849
H          3.50235        0.83360        0.11958
H          2.75357        1.50222       -1.35579
