23
AMPHETAMINE.gamout	Energy:    -405.0064309
N         -3.57930       -0.54928        0.13847
C         -2.24391       -0.18755       -0.34554
C         -1.25085       -0.32426        0.83074
C          0.20079       -0.15096        0.44479
C         -2.28310        1.23067       -0.91443
C          0.88218       -1.16642       -0.24825
C          0.90553        1.02167        0.75836
C          2.21767       -1.01113       -0.62642
C          2.24301        1.18218        0.38271
C          2.90419        0.16672       -0.31341
H         -1.89676       -0.86471       -1.15217
H         -1.38850       -1.32260        1.27785
H         -1.53348        0.40717        1.60214
H         -1.30013        1.52586       -1.30475
H         -2.58646        1.94528       -0.13531
H         -3.00713        1.29719       -1.74037
H          0.36021       -2.09618       -0.48713
H          0.40120        1.82007        1.30675
H         -3.61624       -1.51029        0.46873
H         -4.28546       -0.44400       -0.58502
H          2.72663       -1.81449       -1.16304
H          2.77109        2.10313        0.63821
H          3.94866        0.28873       -0.60577
