16
ANISOLE.gamout	Energy:    -346.3284612
C          5.09783        1.11088        3.02401
O          4.06622        1.74934        3.75046
C          3.02024        2.30390        3.07711
C          2.02417        2.90132        3.86833
C          2.89550        2.30896        1.67984
C          0.92101        3.49999        3.26571
C          1.77868        2.91545        1.08943
C          0.78998        3.51427        1.86992
H          5.59615        1.81102        2.33303
H          5.82168        0.75703        3.76519
H          4.71058        0.25158        2.45133
H          2.13953        2.88460        4.95287
H          3.65060        1.84860        1.04461
H          0.15468        3.96169        3.89150
H          1.68949        2.91539        0.00117
H         -0.07552        3.98422        1.40087
