26
ANTIPYRINE.gamout	Energy:    -610.3276189
O          0.42234        6.76825       -0.04224
N          2.35814        5.45395       -0.07592
N          3.73443        5.70562        0.06207
C          3.85719        7.02445        0.47900
C          1.92489        4.38417       -0.89559
C          1.62597        6.65771        0.12617
C          2.63904        7.63250        0.50077
C          4.49458        4.65145        0.73168
C          5.19249        7.58056        0.85449
C          2.73379        3.89693       -1.93468
C          0.66237        3.81517       -0.66700
C          2.28671        2.83793       -2.72765
C          0.22070        2.76907       -1.47907
C          1.02955        2.26919       -2.50490
H          2.42824        8.67671        0.70935
H          4.34899        3.70462        0.20163
H          4.18062        4.52953        1.78228
H          5.55925        4.90486        0.69207
H          5.94873        7.37077        0.08375
H          5.11611        8.66631        0.98221
H          5.55375        7.15689        1.80501
H          3.69958        4.36349       -2.12765
H          0.03593        4.20770        0.13114
H          2.92529        2.46283       -3.52949
H         -0.76329        2.33268       -1.29836
H          0.68197        1.44385       -3.12809
