5
BCL4-1.gamout	Energy:   -1865.1196883
B         -7.37557        2.20512        0.82910
Cl        -6.86861        0.90141        2.09205
Cl        -9.24939        2.17786        0.61836
Cl        -6.54825        1.83297       -0.82360
Cl        -6.83558        3.90824        1.43419
