16
BENZYL_MERCAPTAN.gamout	Energy:    -669.2257742
S          0.49433        1.30345       -3.51419
C         -0.26092        0.07494       -1.06634
C          0.81662        0.12896       -2.11986
C         -0.59037        1.20807       -0.30288
C         -0.94070       -1.12552       -0.81384
C         -1.56976        1.13803        0.68808
C         -1.92586       -1.19677        0.17732
C         -2.24245       -0.06575        0.93236
H          1.76280        0.49363       -1.69379
H          1.00662       -0.86816       -2.53532
H         -0.07895        2.15280       -0.49679
H         -0.69671       -2.01552       -1.39831
H         -1.81001        2.02613        1.27604
H         -2.44479       -2.14007        0.35840
H         -3.00887       -0.11909        1.70751
H         -0.68899        0.77392       -3.90383
