14
BENZOYL_CHLORIDE.gamout	Energy:    -804.5652616
Cl         6.53297        4.51328       -1.51963
C          7.27266        2.92723       -0.97818
O          8.45671        2.85336       -0.89525
C          6.30080        1.84485       -0.68306
C          6.83996        0.61196       -0.26420
C          4.90842        1.99015       -0.79929
C          5.99599       -0.45527        0.03254
C          4.60896       -0.30458       -0.08486
C          4.06901        0.91652       -0.50011
H          7.92186        0.51147       -0.17795
H          4.49001        2.94084       -1.12300
H          6.41905       -1.40755        0.35631
H          3.94813       -1.14143        0.14802
H          2.98839        1.03463       -0.59173
