31
BENZYLDIMETHYLCHOLINE+1.gamout	Energy:    -559.0086087
O          3.09727        2.43653       -0.31879
N          1.42469       -0.86487        0.04914
C          0.12976       -1.13906        0.86071
C          1.77057        0.60191        0.15566
C          1.23131       -1.27279       -1.37947
C          2.51016       -1.70712        0.65144
C         -1.12146       -0.43044        0.41624
C          3.07597        1.04101       -0.51143
C         -1.50664        0.79010        0.99646
C         -1.99177       -1.04605       -0.49848
C         -2.71479        1.39515        0.64557
C         -3.19846       -0.44317       -0.85099
C         -3.55970        0.77876       -0.28000
H          0.38823       -0.87545        1.89231
H         -0.00218       -2.22526        0.80614
H          0.93934        1.16064       -0.28408
H          1.81517        0.84003        1.22359
H          2.18621       -1.20466       -1.90733
H          0.87642       -2.30737       -1.40384
H          0.49095       -0.61530       -1.84107
H          2.17958       -2.74954        0.66100
H          3.41744       -1.61765        0.04949
H          2.70331       -1.37046        1.67437
H          3.94740        0.55966       -0.03753
H          3.07874        0.78323       -1.58371
H         -0.87285        1.26535        1.74575
H         -1.73665       -2.01843       -0.92122
H         -3.01328        2.34027        1.10390
H         -3.86515       -0.93283       -1.56085
H          3.91199        2.82363       -0.66071
H         -4.50878        1.24385       -0.54577
