15
BENZYL_DICHLORIDE.gamout	Energy:   -1190.0194988
Cl         8.29235        3.44548        0.43351
C          7.24022        2.99816       -0.97547
Cl         8.27839        2.69311       -2.43199
C          6.34398        1.83401       -0.66557
C          6.86337        0.57241       -0.33642
C          4.95580        2.02029       -0.70852
C          6.00118       -0.48583       -0.05464
C          4.09248        0.95644       -0.42535
C          4.61350       -0.29700       -0.09823
H          6.66717        3.89877       -1.20900
H          7.94373        0.42529       -0.30270
H          4.54633        2.99962       -0.96409
H          6.41145       -1.46465        0.20069
H          3.01249        1.11087       -0.46112
H          3.94178       -1.12848        0.12308
