16
BENZYL_ALCOHOL.gamout	Energy:    -346.3340797
C          1.94711       -0.00137       -0.56529
C          0.46156       -0.00073       -0.29903
C         -0.23955        1.20697       -0.16657
C         -1.61221        1.20960        0.09497
C         -2.30255        0.00064        0.22602
C         -1.61339       -1.20899        0.09521
C         -0.24065       -1.20773       -0.16609
O          2.64215        0.00143        0.68148
H          2.21793       -0.89458       -1.15625
H          2.21804        0.88923       -1.16014
H          0.29674        2.15301       -0.26840
H         -2.14575        2.15695        0.19443
H         -3.37562        0.00117        0.42647
H         -2.14780       -2.15581        0.19500
H          0.29476       -2.15431       -0.26752
H          3.59283        0.00101        0.52155
