24
BENZOPHENONE.gamout	Energy:    -575.8925418
O          2.32545        1.52371        1.46431
C          3.08449        1.75631        2.39305
C          2.64392        1.50000        3.80651
C          4.45568        2.30761        2.12069
C          1.27307        1.59317        4.10527
C          3.53824        1.10073        4.81488
C          5.10635        3.18272        3.00778
C          5.06533        2.00299        0.89035
C          0.81025        1.31706        5.39111
C          3.07024        0.80782        6.09834
C          6.34350        3.73814        2.67170
C          6.30715        2.54546        0.56388
C          1.70838        0.92453        6.39120
C          6.94972        3.41442        1.45450
H          0.58393        1.88258        3.31131
H          4.59874        0.98916        4.58912
H          4.63041        3.45584        3.94951
H          4.54271        1.34208        0.19815
H         -0.25422        1.40459        5.61653
H          3.77124        0.48478        6.87013
H          6.83235        4.42882        3.36122
H          6.77695        2.29631       -0.38952
H          1.34505        0.70231        7.39629
H          7.91982        3.84309        1.19592
