24
BETA_D-FRUCTOPYRANOSE.gamout	Energy:    -686.3820545
C         -2.73357        2.22168       -1.39405
O         -2.80323        0.79770       -1.39958
C         -2.18488        2.77905       -2.70303
C         -1.84340        2.70360       -0.24037
H         -3.76118        2.57766       -1.23060
O         -0.83296        2.36339       -2.88263
H         -2.25558        3.87743       -2.71162
H         -2.74102        2.37918       -3.55909
C         -0.37278        2.36125       -0.51338
O         -2.24025        2.16642        1.01164
H         -1.94102        3.79582       -0.15247
H         -0.25474        1.26609       -0.47146
O          0.48442        2.98003        0.43785
C          0.08035        2.82079       -1.91594
C          1.45641        2.25829       -2.31741
O          0.13475        4.23318       -1.97532
H         -2.04764        0.44913       -1.89320
H          0.46655        4.55013       -1.12261
O          1.55853        0.85100       -2.18970
H          2.22553        2.77516       -1.72523
H          1.60219        2.51560       -3.37448
H          1.95693        0.62763       -1.34241
H         -2.48760        1.24107        0.86522
H          0.09436        2.86896        1.31531
