19
BHEA+1.gamout	Energy:    -364.1390108
O         -8.75387       -0.12372       -0.08098
C         -7.65711       -0.98427       -0.21522
C         -6.43265       -0.09094       -0.02728
H         -7.62499       -1.46597       -1.21224
H         -7.66146       -1.78595        0.54886
N         -5.15682       -0.87517       -0.18326
H         -6.42656        0.35759        0.97306
H         -6.42312        0.71241       -0.77376
C         -3.89776       -0.06884       -0.00703
C         -2.65592       -0.94176       -0.17342
H         -3.92757        0.38046        0.99259
H         -3.90830        0.73357       -0.75449
O         -1.57590       -0.06227       -0.02674
H         -2.66523       -1.42693       -1.16928
H         -2.64926       -1.74076        0.59336
H         -0.72936       -0.51938       -0.10192
H         -9.59131       -0.59430       -0.17271
H         -5.14566       -1.31599       -1.11139
H         -5.15564       -1.65238        0.48937
