26
BMA+1.gamout	Energy:    -331.6454683
N         -1.42423        1.16578        0.05545
C         -0.48964        2.13794       -0.66726
C          0.71492        2.63920        0.12346
H         -1.12574        2.97575       -0.97660
H         -0.16002        1.61222       -1.57213
C          1.53774        3.64098       -0.70931
H          0.39825        3.13255        1.05404
H          1.36603        1.79913        0.40548
C          2.78132        4.13546        0.03261
H          0.90652        4.50229       -0.98242
H          1.84344        3.16680       -1.65665
H          2.51574        4.66415        0.96073
H          3.34724        4.83307       -0.59629
H          3.44917        3.30149        0.29439
C         -2.13026        1.85333        1.18370
H         -2.71161        2.68846        0.78098
H         -1.39612        2.21949        1.90577
H         -2.80077        1.13568        1.66901
C         -2.44892        0.67840       -0.92805
H         -1.94566        0.10690       -1.71336
H         -2.96551        1.53901       -1.36309
H         -3.16651        0.03940       -0.40473
C         -0.66985       -0.01454        0.58535
H         -0.03589        0.30083        1.41642
H         -0.05751       -0.43637       -0.21728
H         -1.38891       -0.76170        0.93609
