5
BROMOTRIFLUOROMETHANE.gamout	Energy:   -2911.0015892
Br        -1.07804        0.00000        0.00012
C          0.86936       -0.00000       -0.00032
F          1.32760        0.00000        1.24842
F          1.32847       -1.08125       -0.62436
F          1.32847        1.08125       -0.62436
