5
BROMOTRICHLOROMETHANE.gamout	Energy:   -3991.7851565
C          0.98732        0.84204       -0.00654
Cl         0.11865        2.40259       -0.00366
Cl         2.74883        1.13702       -0.00332
Br         0.49463       -0.18279        1.60230
Cl         0.53867       -0.09070       -1.46203
