8
BROMOETHANE.gamout	Energy:   -2652.8491673
C         -0.10638       -0.25685       -0.00361
C          1.40309       -0.12175       -0.00358
Br         1.97981        1.77569       -0.00360
H         -0.36968       -1.32721       -0.00298
H         -0.54942        0.20796       -0.89446
H         -0.54952        0.20900        0.88665
H          1.86256       -0.55719       -0.89770
H          1.86253       -0.55718        0.89055
