5
BROMOCHLOROMETHANE.gamout	Energy:   -3072.9917830
C          0.85279        0.01050       -0.00011
Cl         2.44118        0.82139        0.00010
Br        -0.65619        1.24856        0.00010
H          0.77575       -0.59715       -0.90560
H          0.77570       -0.59752        0.90514
