22
BUTOXYETHANOL.gamout	Energy:    -387.0066961
O         -0.64382        0.11206       -0.09567
O         -4.14958        0.91711       -0.19595
C          1.72921       -0.19370       -0.02625
C          3.10953        0.46902        0.02623
C          0.58546        0.80890       -0.04849
C          4.25772       -0.54263        0.04885
C         -1.77886        0.94567       -0.12108
C         -3.01548        0.06229       -0.16957
H          1.65158       -0.83220       -0.92093
H          1.59686       -0.85608        0.84441
H          3.17210        1.11378        0.91904
H          3.22784        1.13856       -0.84238
H          0.61924        1.45349        0.85234
H          0.67475        1.47702       -0.92807
H         -1.81846        1.59043        0.77748
H         -1.76327        1.61068       -1.00570
H          4.18391       -1.20373        0.92581
H          4.24149       -1.17868       -0.84943
H          5.23464       -0.03986        0.08735
H         -3.02460       -0.59621        0.71639
H         -2.96819       -0.57642       -1.06862
H         -4.95511        0.39221       -0.22719
