29
BUTYL_4-AMINOBENZOATE.gamout	Energy:    -632.6361554
O          1.25808        0.10332        0.07092
O          0.47902        2.21272        0.17692
N         -4.97228       -1.19316       -0.00531
C          3.55573       -0.57909        0.03285
C          5.02545       -0.14484        0.05139
C          2.60454        0.60375        0.09566
C          6.00311       -1.31962       -0.01015
C         -1.08468        0.40554        0.08389
C          0.26460        1.01820        0.11628
C         -2.21070        1.24675        0.12360
C         -1.28930       -0.98411        0.01401
C         -3.70237       -0.67074        0.02369
C         -3.49647        0.72572        0.09430
C         -2.57165       -1.51677       -0.01599
H          3.34754       -1.15726       -0.88219
H          3.35227       -1.25040        0.88307
H          5.21909        0.44473        0.96339
H          5.21395        0.53637       -0.79541
H          2.74832        1.19513        1.01246
H          2.74728        1.28522       -0.75629
H          5.86221       -1.99746        0.84579
H          5.86031       -1.91003       -0.92840
H          7.04569       -0.97152        0.00574
H         -2.05219        2.32413        0.17749
H         -0.42777       -1.64937       -0.01737
H         -4.35954        1.39412        0.12582
H         -2.71306       -2.59832       -0.07050
H         -5.12809       -2.18709       -0.05587
H         -5.78452       -0.59791        0.02231
