3
CARBON_DIOXIDE.gamout	Energy:    -188.3753538
C         -0.00000        0.00000        0.00000
O          1.16362        0.00000       -0.00000
O         -1.16362        0.00000        0.00000
