5
CARBON_TETRACHLORIDE.gamout	Energy:   -1878.0622698
C          0.00014       -0.00015       -0.00006
Cl         1.03313        1.03341        1.03339
Cl        -1.03340       -1.03312        1.03338
Cl        -1.03328        1.03328       -1.03312
Cl         1.03351       -1.03352       -1.03364
