25
CARVACROL.gamout	Energy:    -464.1262045
C         -3.61222        0.87953        0.26824
C         -2.34744        0.06402        0.14940
H         -4.37965        0.36734        0.87456
H         -4.05934        1.09421       -0.71812
H         -3.41281        1.84548        0.74817
C         -1.11721        0.51986        0.64415
C         -2.36147       -1.19755       -0.47331
C          0.04999       -0.23603        0.53474
H         -1.07726        1.49934        1.12654
C         -1.19387       -1.96018       -0.58889
C          0.02562       -1.49655       -0.08590
H          0.98263        0.16169        0.93688
C          1.28469       -2.34375       -0.22034
C          2.36032       -1.64581       -1.07131
H          1.95872       -1.34210       -2.04797
H          3.21489       -2.31705       -1.24320
H          2.74163       -0.74359       -0.56997
C          1.84167       -2.76874        1.14973
H          0.98837       -3.26132       -0.75329
H          2.71304       -3.42915        1.02487
H          1.08552       -3.30710        1.73783
H          2.16611       -1.89618        1.73608
H         -1.25857       -2.93047       -1.08388
O         -3.50463       -1.73919       -0.99546
H         -4.25580       -1.15050       -0.86404
