8
CHLOROETHANE.gamout	Energy:    -539.1250618
C          2.38066        0.98030        1.39818
C          1.31781        1.97162        0.96873
Cl        -0.02930        2.09749        2.19048
H          2.84457        1.27992        2.34769
H          3.16448        0.94011        0.62496
H          1.95952       -0.02693        1.51852
H          0.83800        1.68148        0.02621
H          1.71853        2.98691        0.86273
