14
CHLOROTHALONIL.gamout	Energy:   -2253.8144501
N          7.89472        3.86276       -1.20187
C          7.18895        2.97373       -0.96618
C          6.31866        1.87347       -0.67431
C          6.85095        0.61469       -0.33818
C          4.91636        2.03980       -0.72081
Cl         8.56505        0.39832       -0.27789
C          6.00128       -0.46982       -0.05062
Cl         4.27629        3.58971       -1.13511
C          4.05484        0.96720       -0.43631
C          6.54882       -1.74911        0.29108
C          4.60175       -0.28303       -0.10246
Cl         2.34012        1.18362       -0.49665
N          6.99313       -2.78371        0.56716
Cl         3.57022       -1.62210        0.25294
