5
CHLOROMETHANE.gamout	Energy:    -499.8621994
H          0.00099        1.19358        1.62852
C          0.64776        0.98732        0.76857
H          0.51318        1.75042       -0.00598
H          0.44433       -0.01066        0.36480
Cl         2.36218        1.03699        1.32310
