5
CHLOROTRIFLUOROMETHANE.gamout	Energy:    -797.2805952
Cl        -1.42455        0.00000        0.00005
C          0.35331       -0.00000       -0.00003
F          0.81156        0.00000        1.24845
F          0.81169       -1.08119       -0.62426
F          0.81169        1.08119       -0.62426
