22
CHOLINE-CHLORIDE.gamout	Energy:    -788.4934713
C         -7.16359       -0.18964        1.29471
N         -5.85508        0.41367        0.91810
H         -7.88982        0.61078        1.46380
H         -7.03903       -0.77429        2.21254
H         -7.50851       -0.83753        0.48208
C         -5.30954        1.21817        2.06997
C         -5.99834        1.25645       -0.34441
H         -4.95262        0.51706        2.83056
H         -6.10725        1.83697        2.48691
H         -4.49306        1.85511        1.68416
H         -4.97058        1.51021       -0.63425
C         -6.75723        2.58985       -0.20260
H         -6.45373        0.60013       -1.09586
C         -4.86360       -0.66431        0.60957
H         -4.80330       -1.34793        1.46278
H         -3.89406       -0.18775        0.42993
H         -5.18970       -1.20617       -0.28399
H         -6.66997        2.97643        0.82715
H         -7.82885        2.46511       -0.41865
O         -6.24496        3.50405       -1.12719
H         -5.29431        3.64685       -0.89922
Cl        -3.32213        3.10043        0.05281
