16
CIS,CIS-2,4-HEXADIENE.gamout	Energy:    -234.3054123
C          0.56071        2.65927        1.27228
C          1.32785        1.37142        1.21289
C          2.66549        1.20707        1.12802
C          3.66690        2.26603        1.07599
C          5.00456        2.10168        0.99130
C          5.77170        0.81382        0.93213
H         -0.03879        2.71325        2.19663
H          1.20487        3.54634        1.23686
H         -0.15314        2.72606        0.43391
H          0.71589        0.46407        1.24275
H          3.03470        0.17914        1.09518
H          3.29769        3.29396        1.10864
H          5.61652        3.00902        0.96135
H          6.48554        0.74721        1.77053
H          5.12754       -0.07323        0.96781
H          6.37121        0.75966        0.00780
