27
CIS,CIS-1,2,3-TRIMETHYLCYCLOHEXANE.gamout	Energy:    -353.3112935
C          4.11088        1.61247        1.90884
C          3.59181        2.59398        0.83322
C          2.39641        3.42898        1.33973
C          3.79091        2.11436        3.32560
C          2.24533        2.20108        3.56344
C          4.54955        1.32656        4.39833
C          1.47037        2.61596        2.26065
C          1.64236        0.95901        4.23462
H          3.66601        0.61376        1.77301
H          5.19686        1.47199        1.80019
H          4.40105        3.27553        0.52951
H          3.30924        2.03988       -0.07421
H          1.82721        3.82845        0.48655
H          2.76720        4.30751        1.89141
H          4.16926        3.14926        3.38083
H          2.10127        3.03148        4.27494
H          4.32740        1.69673        5.41020
H          4.30706        0.25408        4.37140
H          5.63377        1.42281        4.24184
H          2.07914        0.78793        5.22614
H          0.55940        1.08391        4.37641
H          1.79509        0.04561        3.64151
C          0.80418        1.46553        1.48432
H          0.65096        3.28024        2.58122
H          1.52166        0.70946        1.13807
H          0.04535        0.94748        2.08462
H          0.29618        1.86648        0.59464
