22
CIS-1-PHENYL-1-BUTENE.gamout	Energy:    -387.7592951
C          6.29951        1.78672        5.74051
C          5.28995        0.82296        5.68656
C          6.27506        2.85551        4.83550
C          4.26929        0.93106        4.74051
C          4.22575        2.00034        3.82405
C          5.25564        2.96208        3.89078
C          3.11521        2.04940        2.85613
C          2.84941        3.00813        1.95284
C          1.69739        3.01240        0.98291
C          0.75307        1.81270        1.04113
H          7.09987        1.70651        6.47799
H          5.29472       -0.01785        6.38300
H          7.06173        3.61204        4.86685
H          3.48376        0.17268        4.70634
H          5.26305        3.80106        3.19395
H          2.44285        1.18932        2.90904
H          3.50790        3.88041        1.88921
H          2.10897        3.10875       -0.03854
H          1.12023        3.94260        1.13687
H          0.27918        1.72263        2.02990
H          1.28506        0.87195        0.83527
H         -0.04669        1.91546        0.29483
