16
CIS-1,4-HEXADIENE.gamout	Energy:    -234.2931524
C          5.28507        3.09560        2.55032
C          4.82935        1.99347        1.94927
C          3.71085        1.94978        0.93562
C          2.60123        1.00689        1.33777
C          1.30545        1.29650        1.52327
C          0.62363        2.62726        1.37727
H          6.10136        3.05468        3.27392
H          4.85951        4.08094        2.34104
H          5.28529        1.02730        2.19615
H          3.33033        2.96540        0.76247
H          4.12828        1.60032       -0.02867
H          2.91438       -0.03088        1.49743
H          0.64871        0.46988        1.81634
H          0.12681        2.91396        2.31895
H          1.31316        3.43508        1.10171
H         -0.16543        2.58023        0.60836
