6
CIS-1,2-DICHLOROETHYLENE.gamout	Energy:    -997.3027709
C          2.15025        1.50449        0.12024
C          0.81728        1.45317        0.08990
Cl         3.21034        0.13418        0.07381
H          2.66407        2.46445        0.17895
H          0.22898        2.37070        0.12349
Cl        -0.13133        0.00575       -0.00243
