24
CIS-1-METHYL-3-ETHYLCYCLOPENTANE.gamout	Energy:    -314.0611321
C          6.87581        1.27669        1.46920
C          5.62075        1.01691        2.30583
C          4.49134        2.02716        2.08436
C          3.24359        1.79131        2.95081
C          3.91134        2.05991        0.64965
C          2.15904        2.67520        2.30940
C          2.45949        2.59278        0.78504
C          0.72449        2.31330        2.68716
H          7.65834        0.53517        1.68611
H          7.29394        2.27372        1.67921
H          6.66128        1.22631        0.39143
H          5.89236        1.01807        3.37453
H          5.23528        0.00513        2.09061
H          4.87840        3.03540        2.32316
H          3.40875        2.02402        4.01343
H          2.94708        0.72866        2.88961
H          3.90200        1.03488        0.24491
H          4.52156        2.66169       -0.03709
H          2.34936        3.71223        2.63641
H          1.74859        1.91252        0.29202
H          2.33113        3.57355        0.30529
H          0.56264        2.38473        3.77342
H          0.00074        2.98228        2.19758
H          0.48593        1.28272        2.37919
