26
CIS-STILBENE.gamout	Energy:    -539.9895843
C          4.45351        1.17879        4.58643
C          5.67433        1.68181        4.29649
C          6.17413        2.38397        3.09733
C          3.24231        1.03547        3.75416
C          7.53162        2.25027        2.74311
C          5.37345        3.25005        2.32554
C          1.97631        1.08856        4.37097
C          3.29134        0.76796        2.37113
C          8.06172        2.92414        1.64124
C          5.90472        3.92997        1.22987
C          0.80384        0.91769        3.63215
C          2.12083        0.58911        1.63441
C          7.24897        3.76563        0.87635
C          0.87057        0.67029        2.25800
H          4.33552        0.79268        5.60367
H          6.42574        1.56992        5.08435
H          8.17515        1.60138        3.34132
H          4.32928        3.40050        2.59686
H          1.91672        1.27230        5.44596
H          4.25680        0.68543        1.87354
H          9.11464        2.79605        1.38311
H          5.26644        4.60041        0.65117
H         -0.16479        0.97193        4.13254
H          2.18535        0.37619        0.56567
H          7.66200        4.29885        0.01837
H         -0.04360        0.52981        1.67863
