24
CIS-1,3-DIMETHYLCYCLOHEXANE.gamout	Energy:    -314.0712581
C          1.04260        2.02670        5.67584
C          1.91769        1.53386        4.52012
C          1.69027        2.35963        3.24247
C          3.40991        1.53081        4.89145
C          2.56038        1.90074        2.06006
C          2.31367        2.75195        0.81135
C          4.04441        1.89157        2.46266
H         -0.02508        1.99327        5.41227
H          1.18621        1.41247        6.57727
H          1.29036        3.06778        5.93767
H          1.62969        0.48947        4.29655
H          1.91336        3.42085        3.45911
H          0.62614        2.31950        2.95896
H          3.57466        0.89504        5.77574
H          2.27457        0.85858        1.82374
H          2.91501        2.39811       -0.03939
H          1.25562        2.72405        0.51109
H          2.58162        3.80465        0.99532
H          4.65567        1.50968        1.62974
C          4.29401        1.06354        3.72889
H          3.70444        2.55486        5.18410
H          4.36990        2.93297        2.63682
H          4.08124        0.00146        3.51586
H          5.35593        1.11629        4.01422
