18
CIS-2-HEXENE.gamout	Energy:    -235.5209645
C          3.25366        1.74865        1.29021
C          2.04320        2.55854        1.67472
C          1.49250        2.24384        3.08302
C          4.51319        2.18256        1.12675
C          0.99564        0.80708        3.26648
C          5.03419        3.58382        1.27521
H          3.07395        0.67999        1.13383
H          2.26484        3.63344        1.61604
H          1.24117        2.36857        0.93854
H          2.27655        2.45947        3.82681
H          0.66380        2.94015        3.29187
H          5.26589        1.43680        0.84830
H          0.56930        0.66363        4.27017
H          0.21224        0.56139        2.53210
H          1.80918        0.07686        3.14614
H          5.82317        3.62622        2.04450
H          5.49561        3.93082        0.33550
H          4.25461        4.30325        1.55441
