4
CIS-DIFLUORODIAZINE.gamout	Energy:    -308.6759021
N         17.93257       29.07553       -0.00000
N         16.97654       28.31837       -0.00000
F         15.85317       29.11481        0.00000
F         19.05593       28.27909        0.00000
