6
CIS-1,2-DIFLUOROETHYLENE.gamout	Energy:    -276.7439349
C          0.50468        0.87103       -0.00000
C          1.83572        0.87103        0.00000
F          2.55753       -0.25709       -0.00000
F         -0.21713       -0.25709        0.00000
H         -0.08587        1.78681       -0.00000
H          2.42627        1.78681       -0.00000
