24
CIS-2-OCTENE.gamout	Energy:    -314.0374599
C          3.00558        3.47731        0.94573
C          2.00551        3.60662        2.10901
C          0.78416        2.68065        1.99719
C          4.09916        4.50878        0.99643
C          1.07560        1.17141        2.02267
C          5.42185        4.30968        1.10447
C          1.71268        0.66725        3.32080
C          6.15368        3.00058        1.18637
H          3.42999        2.46458        0.92861
H          2.44884        3.59296       -0.00276
H          2.53397        3.43260        3.05966
H          1.64723        4.64810        2.15558
H          0.08649        2.91947        2.81764
H          0.24738        2.92060        1.06392
H          3.75492        5.54826        0.94703
H          0.12711        0.63566        1.85706
H          1.71730        0.89977        1.16870
H          6.05703        5.20150        1.13337
H          1.08707        0.91663        4.19220
H          2.70615        1.10826        3.48871
H          1.83853       -0.42505        3.30069
H          5.48250        2.13316        1.16300
H          6.75096        2.94332        2.11147
H          6.86638        2.89893        0.35101
