24
CIS-4-OCTENE.gamout	Energy:    -314.0383656
C          2.64124        3.37365        1.86376
C          3.97670        3.31094        1.75308
C          4.92266        2.30682        2.35589
C          1.71710        2.44623        2.60653
C          5.97516        2.94807        3.28451
C          0.66673        1.77625        1.69624
C          5.38586        3.57167        4.55164
C          1.26117        0.80552        0.67310
H          2.13644        4.19554        1.34167
H          4.46427        4.09272        1.15821
H          5.45369        1.78928        1.53777
H          4.37508        1.52969        2.90907
H          2.28369        1.66919        3.14034
H          1.18320        3.02716        3.37884
H          6.52906        3.71573        2.71858
H          6.71359        2.17889        3.56269
H         -0.05823        1.24216        2.33128
H          0.09675        2.56124        1.17140
H          4.65294        4.35451        4.30691
H          6.17125        4.02530        5.17403
H          4.87027        2.81343        5.16158
H          0.47696        0.36609        0.03920
H          1.98423        1.31157        0.01671
H          1.78933       -0.02048        1.17478
