22
CIS-4-METHYLCYCLOHEXANOL.gamout	Energy:    -349.9483297
C          0.14617        0.77887        1.29383
C          1.03044        0.82174        0.04523
C          1.78630        2.15703       -0.07844
C          2.02436       -0.35340        0.00514
C          2.68785        2.20308       -1.32070
C          2.92627       -0.31230       -1.23703
C          3.67210        1.02406       -1.37083
O          4.70615        1.15377       -0.39227
H         -0.58588        1.60022        1.29569
H         -0.41067       -0.16769        1.35765
H          0.75388        0.87180        2.20816
H          0.37657        0.72960       -0.84211
H          1.07227        2.99447       -0.10321
H          2.39309        2.31157        0.83265
H          1.48007       -1.30947        0.04035
H          2.64261       -0.32994        0.92128
H          3.25459        3.14477       -1.35563
H          2.05906        2.16973       -2.22640
H          3.66017       -1.13088       -1.21255
H          2.30750       -0.45889       -2.13836
H          4.21269        1.04372       -2.32794
H          4.32580        1.14732        0.49338
