15
CIS-2-PENTENE.gamout	Energy:    -196.2632765
C          1.94670        3.19518        2.40610
C          0.42239        3.37656        2.34754
C          2.35882        1.77168        2.67192
C          3.26463        1.03460        2.01103
C          4.10341        1.43860        0.83172
H          2.34801        3.83890        3.20997
H          2.39780        3.55968        1.47267
H         -0.05040        3.05595        3.28848
H         -0.01387        2.77938        1.53319
H          0.15635        4.43040        2.17899
H          1.84781        1.29270        3.51533
H          3.42503        0.01065        2.36565
H          5.17585        1.41558        1.08905
H          3.87049        2.44567        0.46408
H          3.96869        0.73119       -0.00308
