10
CIS-CROTONITRILE.gamout	Energy:    -209.8780856
C          0.84780        1.61127        1.99907
C          1.71028        1.54435        0.96717
C          0.95724        0.80803        3.17960
C          2.90364        0.65182        0.86051
N          1.02908        0.16590        4.14457
H          0.00365        2.30429        1.97222
H          1.51845        2.21039        0.12061
H          3.81881        1.25144        0.72656
H          3.02810        0.01508        1.74554
H          2.81965        0.00609       -0.02885
