24
CIS-1,4-DIMETHYLCYCLOHEXANE.gamout	Energy:    -314.0679458
C          0.51365        2.83219        1.93524
C          2.02278        3.00818        2.12040
C          2.80723        2.61362        0.85686
C          2.54800        2.22289        3.33450
C          4.32266        2.77694        1.04034
C          4.06343        2.38482        3.51933
C          4.87001        2.00554        2.25929
H          0.26288        1.77672        1.74255
H         -0.03939        3.14805        2.83244
H          0.14302        3.42398        1.08507
H          2.22087        4.08031        2.31048
H          2.56614        1.56771        0.60048
H          2.46983        3.22231        0.00306
H          2.02595        2.55376        4.24630
H          2.29354        1.15698        3.20691
H          4.85101        2.46092        0.12701
H          4.54661        3.84913        1.17229
H          4.27670        3.43810        3.76930
H          4.40584        1.78738        4.37886
C          4.91764        0.48759        2.02410
H          5.91030        2.33496        2.42028
H          5.35268       -0.02864        2.89286
H          3.92120        0.05689        1.85118
H          5.53651        0.24724        1.14667
