5
CLO4-1.gamout	Energy:    -760.2933733
Cl        -2.83037        1.84435        0.00007
O         -4.04180        1.54097        0.84214
O         -2.53414        0.66911       -0.89387
O         -1.64967        2.10423        0.89797
O         -3.09683        3.06145       -0.84621
