17
COUMARIN.gamout	Energy:    -496.4107968
O         -3.52980        3.53562        0.74713
C         -2.49735        2.92801        0.88114
C         -1.32435        3.37545        1.63159
O         -2.38618        1.68367        0.27572
C         -0.20758        2.61395        1.72183
C         -0.13780        1.32564        1.07459
C          0.98499        0.47340        1.11856
C         -1.27432        0.90236        0.35277
C          0.96933       -0.75304        0.46503
C         -0.17505       -1.15106       -0.24708
C         -1.29871       -0.32965       -0.30702
H         -1.41015        4.35154        2.10692
H          0.65845        2.96596        2.28716
H          1.86904        0.79181        1.67436
H          1.84258       -1.40507        0.50445
H         -0.18888       -2.11372       -0.76068
H         -2.19573       -0.62000       -0.85391
