21
CUMENE.gamout	Energy:    -349.7197322
C          1.05789        0.97883        0.96341
C          1.64427        1.86646        2.07590
C          1.18864        1.39808        3.46950
C          3.16031        1.97594        1.97438
C          3.98952        0.85645        2.16368
C          3.76957        3.20570        1.68561
C          5.37856        0.96587        2.07000
C          5.16048        3.32157        1.59188
C          5.97131        2.20076        1.78477
H          1.44575       -0.04877        1.02695
H          1.31116        1.37182       -0.03134
H         -0.03834        0.92820        1.04471
H          1.24504        2.88282        1.92832
H          0.09107        1.41938        3.54300
H          1.59850        2.04414        4.25846
H          1.51428        0.36728        3.67556
H          3.54642       -0.11614        2.38634
H          3.14445        4.08821        1.53145
H          6.00337        0.08285        2.21927
H          5.61014        4.29202        1.37236
H          7.05712        2.28655        1.71531
