18
CYCLOHEXANE.gamout	Energy:    -235.5500639
C          0.00002       -1.46446        0.22889
C         -1.26787        0.73228        0.22885
C          1.26784        0.73224        0.22886
C          0.00000        1.46410       -0.22887
C         -1.26754       -0.73208       -0.22883
C          1.26755       -0.73208       -0.22884
H          0.00003       -1.53342        1.33092
H         -1.32743        0.76634        1.33074
H          1.32739        0.76628        1.33074
H          0.00002        1.53264       -1.33091
H         -1.32672       -0.76593       -1.33072
H          1.32673       -0.76592       -1.33073
H          0.00002       -2.49846       -0.14831
H         -2.16330        1.24928       -0.14826
H          2.16324        1.24923       -0.14826
H          0.00001        2.49813        0.14803
H         -2.16297       -1.24910        0.14798
H          2.16298       -1.24908        0.14796
