22
CYCLOHEPTANOL.gamout	Energy:    -349.9337962
O         -2.14418        1.32559       -0.75120
C         -3.00251        0.20772       -0.49494
C         -3.65764        0.46294        0.87009
C         -3.99862        0.03323       -1.64772
C         -4.91480        1.34614        0.84827
C         -5.11233       -1.00487       -1.44248
C         -6.18198        0.71105        0.19276
C         -6.04192       -0.76061       -0.22759
H         -1.77042        1.25589       -1.63681
H         -2.37891       -0.70259       -0.41074
H         -2.89419        0.93508        1.50480
H         -3.88550       -0.50408        1.34078
H         -4.44656        1.01947       -1.84394
H         -3.43784       -0.23187       -2.55974
H         -4.66941        2.29391        0.34711
H         -5.14833        1.61515        1.88891
H         -4.67635       -2.01448       -1.37325
H         -5.71969       -1.00605       -2.36092
H         -7.02377        0.78497        0.89688
H         -6.48271        1.30591       -0.68396
H         -5.69624       -1.34977        0.63465
H         -7.04060       -1.15683       -0.46476
