21
CYCLOHEPTANE.gamout	Energy:    -274.7991595
C          2.05461        0.98892        1.83403
C          0.96448        1.98894        1.40673
C          0.97043        3.35667        2.11794
C          3.39433        1.18525        1.10460
C          2.34898        3.97107        2.43244
C          4.19199        2.44257        1.47640
C          3.44476        3.78230        1.36757
H          1.69747       -0.02992        1.61672
H          2.20661        1.02868        2.92637
H         -0.02707        1.53482        1.55645
H          1.05448        2.14285        0.31872
H          0.41441        3.27197        3.06567
H          0.39282        4.06353        1.50021
H          3.19372        1.19359        0.01885
H          4.03479        0.30700        1.28677
H          2.72370        3.55497        3.38207
H          2.20501        5.04612        2.62110
H          5.08927        2.48120        0.83788
H          4.55990        2.34104        2.51249
H          4.18421        4.58989        1.48333
H          3.02240        3.90222        0.35494
