10
CYCLOPROPYL_CYANIDE.gamout	Energy:    -209.8632184
N          2.12375       -0.00062       -0.24641
C         -0.34720        0.00027        0.57147
C         -1.40403        0.74879       -0.22516
C         -1.40358       -0.74884       -0.22524
C          1.02320        0.00051        0.11890
H         -0.45032        0.00021        1.65887
H         -1.07349        1.26405       -1.12716
H         -2.16469        1.27707        0.35066
H         -2.16385       -1.27771        0.35055
H         -1.07269       -1.26379       -1.12730
