28
CYCLOHEXYLBENZENE.gamout	Energy:    -466.3001761
C          3.23714        1.70787        4.48468
C          3.89125        3.07146        4.80118
C          2.41618        1.21482        5.69600
C          2.43050        1.73979        3.19875
C          4.73410        3.01864        6.08152
C          3.26241        1.16110        6.97462
C          2.81282        0.96405        2.09362
C          1.28710        2.54748        3.07112
C          3.91701        2.51510        7.27777
C          2.08286        0.99059        0.90107
C          0.55474        2.57874        1.88252
C          0.94946        1.79930        0.79045
H          4.05597        0.98256        4.33407
H          3.10025        3.83145        4.91766
H          4.50724        3.39221        3.94767
H          1.99006        0.22510        5.47302
H          1.56037        1.89191        5.85839
H          5.15584        4.01282        6.29563
H          5.59394        2.34479        5.91959
H          4.04977        0.39647        6.85474
H          2.64040        0.83645        7.82304
H          3.69736        0.32779        2.16859
H          0.96185        3.16405        3.91075
H          3.12903        3.25107        7.51539
H          4.55526        2.44025        8.17202
H          2.40164        0.37703        0.05612
H         -0.32923        3.21530        1.80908
H          0.37709        1.82284       -0.13848
