10
CYCLOBUTENE.gamout	Energy:    -155.7600375
C          0.66042        2.27233        0.91394
C          2.22990        2.27473        0.98384
C          2.11855        0.76002        0.99171
C          0.77534        0.75788        0.93229
H          0.15859        2.72770        1.78243
H          0.23816        2.71196       -0.00360
H          2.73069        2.71618        0.10759
H          2.65112        2.73128        1.89357
H          2.87101       -0.03077        1.03179
H          0.02478       -0.03529        0.90592
