30
CYCLODECANE.gamout	Energy:    -392.5621037
C          3.38714        1.64245        3.38308
C          2.32846        0.89315        2.55808
C          1.68809        1.70188        1.41234
C          0.99936        3.02104        1.84819
C          1.41183        4.26911        1.04381
C          2.91521        4.59113        1.04830
C          3.52561        4.99848        2.40816
C          5.02579        4.64685        2.54932
C          5.37393        3.29486        3.21048
C          4.68570        2.03147        2.64142
H          3.65628        1.02174        4.25251
H          2.92687        2.54252        3.81161
H          1.53146        0.56052        3.24394
H          2.76973       -0.02675        2.13931
H          0.95460        1.05493        0.90765
H          2.45349        1.91199        0.65080
H         -0.09233        2.90919        1.76596
H          1.18749        3.20567        2.91586
H          0.84746        5.13700        1.42435
H          1.09282        4.13667       -0.00343
H          3.46183        3.72746        0.64621
H          3.10055        5.40294        0.32661
H          2.96190        4.54626        3.23610
H          3.39769        6.08480        2.53242
H          5.52879        5.43107        3.13653
H          5.48928        4.68627        1.54894
H          5.15240        3.35861        4.28948
H          6.46655        3.17494        3.14228
H          5.38451        1.18314        2.70026
H          4.49107        2.17001        1.56866
