30
CYTARABINE.gamout	Energy:    -890.0991138
O          0.46560        2.23139        2.04114
O          0.48227        2.83247       -0.91835
O         -0.16987        5.33858        1.50837
O         -2.08294        0.99498        2.39703
O          3.91313        3.45373        0.32939
N          2.44231        1.79359        0.84979
N          4.61480        1.29347        0.00523
N          5.26235       -0.87057       -0.35911
C          0.83940        3.64406        0.18427
C         -0.45369        4.10528        0.86886
C          1.51929        2.83267        1.31508
C         -0.76046        2.97209        1.87360
C         -1.85616        2.00838        1.43502
C          2.11675        0.47720        0.84167
C          3.71914        2.24602        0.37839
C          3.01322       -0.46639        0.43582
C          4.30460        0.01110        0.02775
H          1.45736        4.49890       -0.11238
H         -1.25235        4.21596        0.11882
H          2.10320        3.51474        1.94977
H         -1.02530        3.39967        2.85409
H         -1.59691        1.58179        0.45039
H         -2.80238        2.55907        1.33063
H          1.25936        2.67095       -1.46521
H         -0.94674        5.65679        1.98099
H          1.11699        0.23283        1.18725
H         -1.23837        0.58095        2.61337
H          2.75124       -1.52236        0.43288
H          5.11270       -1.86705       -0.34598
H          6.16761       -0.51206       -0.62785
