5
DCA-1.gamout	Energy:    -240.2086558
N         -0.25801       -0.10375        0.00020
N          2.21721       -0.26561        0.00020
N          3.71046       -2.24582        0.00020
C          0.91040       -0.24213        0.00020
C          2.95325       -1.34529        0.00020
