31
DE-1.gamout	Energy:    -542.3311270
O         -5.02372        3.35047       -1.27091
O         -5.05109        1.10809       -1.57027
C          1.27413       -0.62156       -0.14412
C         -0.21028       -0.62217       -0.52644
C          1.91644       -2.01320       -0.13994
C         -0.85484        0.76930       -0.53035
C          3.40292       -2.01279        0.23348
C         -2.34110        0.77272       -0.91379
C          4.04646       -3.40305        0.23006
C         -2.98695        2.15956       -0.90689
C          5.53348       -3.38915        0.59431
C         -4.50878        2.20502       -1.28816
H          1.39385       -0.16517        0.85418
H          1.82818        0.03116       -0.84186
H         -0.32638       -1.08037       -1.52412
H         -0.76059       -1.27809        0.17104
H          1.79188       -2.47052       -1.13686
H          1.36604       -2.66460        0.56136
H         -0.29469        1.42087       -1.22542
H         -0.73074        1.22172        0.47003
H          3.95115       -1.35785       -0.46647
H          3.52705       -1.55791        1.23176
H         -2.47071        0.32235       -1.91089
H         -2.90298        0.11638       -0.22921
H          3.91582       -3.85795       -0.76644
H          3.50288       -4.05606        0.93404
H         -2.45800        2.83481       -1.60281
H         -2.88376        2.62416        0.08974
H          5.96283       -4.40246        0.58090
H          5.69151       -2.97152        1.60113
H          6.10958       -2.77230       -0.11338
