17
DEA+1.gamout	Energy:    -213.8814124
C         -8.40246        2.23116        2.03864
C         -7.28433        1.83310        1.09233
H         -9.36451        1.93634        1.59927
H         -8.43541        3.31871        2.19942
H         -8.31606        1.72470        3.01084
N         -5.93330        2.22424        1.64653
H         -7.37332        2.32532        0.11575
H         -7.24674        0.74879        0.92905
H         -5.92508        3.23592        1.82569
H         -5.81374        1.78839        2.56934
C         -4.74881        1.86754        0.77772
C         -3.44328        2.26953        1.43959
H         -4.90297        2.37912       -0.18041
H         -4.80982        0.78589        0.60483
H         -3.38768        3.35446        1.61083
H         -2.60871        1.99840        0.77978
H         -3.29108        1.74468        2.39391
