14
DECAFLUOROBUTANE.gamout	Energy:   -1149.6042328
C         51.99345       37.05574        0.09046
C         50.67518       36.20462        0.09024
C         50.89706       34.66131       -0.07371
F         49.88255       36.61241       -0.92076
F         50.03617       36.40637        1.25629
C         51.77163       38.59902       -0.07394
F         52.63189       36.85425        1.25687
F         52.78657       36.64775       -0.92007
F         49.74241       34.03619        0.16033
F         51.80920       34.22378        0.79725
F         51.29810       34.36923       -1.31009
F         52.92616       39.22420        0.16050
F         51.37116       38.89081       -1.31057
F         50.85909       39.03674        0.79650
