28
DI-N-BUTYLAMINE.gamout	Energy:    -370.5410574
C         -0.12157       10.08884        0.02571
C          1.15494        9.24500        0.01010
C          2.43711       10.08262       -0.00791
C          3.71343        9.24278       -0.03228
N          4.90681       10.07507       -0.01071
C          6.16397        9.34329       -0.03052
C          7.36788       10.28427       -0.00805
C          8.71404        9.55384        0.01239
C          9.91679       10.50027        0.02371
H         -1.02039        9.45552        0.04244
H         -0.15493       10.74139        0.91173
H         -0.18263       10.73333       -0.86487
H          1.14210        8.57719       -0.86778
H          1.16765        8.58400        0.89316
H          2.46918       10.74300        0.87361
H          2.42513       10.74582       -0.89128
H          3.68882        8.56216       -0.91264
H          3.74078        8.59040        0.85686
H          4.87919       10.75248       -0.76994
H          6.19013        8.69276        0.86003
H          6.24639        8.66480       -0.90901
H          7.32573       10.94325       -0.89361
H          7.28183       10.94311        0.87086
H          8.75641        8.89790        0.89820
H          8.78170        8.88572       -0.86260
H         10.86516        9.94415        0.04255
H          9.92341       11.14384       -0.86962
H          9.89524       11.15714        0.90684
