34
DI-N-AMYLAMINE.gamout	Energy:    -449.0584813
C        104.17058        9.99844        0.04514
N        102.96534        9.18329        0.01683
C        103.19150        7.74644        0.04441
C        103.83737       11.48912        0.01248
C        101.87581        6.96995        0.00956
C        105.06686       12.39999        0.00107
C        102.05718        5.44977        0.00003
C        104.71416       13.89111       -0.02015
C        100.73082        4.68153       -0.02126
C        105.93347       14.81387       -0.03779
C        100.90182        3.16122       -0.03553
H        104.80710        9.78141        0.93196
H        104.77559        9.73494       -0.83868
H        102.33570        9.45610        0.76862
H        103.79839        7.48112       -0.83775
H        103.78305        7.42678        0.93133
H        103.21225       11.68659       -0.87338
H        103.21089       11.73458        0.88875
H        101.26704        7.25739        0.88526
H        101.30554        7.28853       -0.87754
H        105.69412       12.18848        0.88489
H        105.69078       12.16249       -0.87843
H        102.65858        5.15765       -0.87833
H        102.64074        5.14078        0.88456
H        104.08244       14.09804       -0.90068
H        104.08846       14.12465        0.85817
H        100.13110        4.97705        0.85614
H        100.14854        4.99597       -0.90355
H        105.63407       15.87192       -0.05167
H        106.56572       14.65752        0.85022
H        106.55860       14.63249       -0.92603
H         99.92897        2.64875       -0.05044
H        101.46666        2.83338       -0.92182
H        101.44964        2.81451        0.85432
