28
DI-N-BUTYL_KETONE.gamout	Energy:    -428.4641744
C         -1.29310       -0.62063        0.00000
C         -2.57006        0.21608        0.00000
C         -3.84426       -0.63483       -0.00000
C         -5.12782        0.19836       -0.00000
C          0.00000        0.18436        0.00000
O         -0.00000        1.39858        0.00000
C          1.29310       -0.62062        0.00000
C          2.57006        0.21609       -0.00000
C          3.84426       -0.63483        0.00000
C          5.12782        0.19835       -0.00001
H         -1.26614       -1.29574        0.87427
H         -1.26614       -1.29574       -0.87427
H         -2.56439        0.88167        0.87727
H         -2.56439        0.88168       -0.87726
H         -3.83885       -1.29961       -0.88087
H         -3.83886       -1.29962        0.88086
H         -5.17912        0.84648        0.88828
H         -5.17911        0.84649       -0.88828
H         -6.02121       -0.44274       -0.00001
H          1.26614       -1.29572        0.87427
H          1.26614       -1.29573       -0.87426
H          2.56439        0.88167       -0.87727
H          2.56439        0.88168        0.87727
H          3.83885       -1.29961        0.88087
H          3.83885       -1.29962       -0.88086
H          5.17912        0.84648       -0.88829
H          5.17912        0.84649        0.88827
H          6.02121       -0.44274       -0.00000
