21
DI-N-PROPYL_SULFIDE.gamout	Energy:    -634.7668012
S         50.94513       -0.01749        0.00000
C         49.38994        0.95590       -0.00002
C         50.24197       -1.71204        0.00002
C         51.35157       -2.76370        0.00002
C         50.80339       -4.19349        0.00007
C         49.68571        2.45608       -0.00002
C         48.41294        3.30707       -0.00008
H         48.80141        0.68290       -0.89029
H         48.80137        0.68290        0.89023
H         49.60369       -1.83006        0.89001
H         49.60365       -1.83008       -0.88994
H         51.99336       -2.61266       -0.88227
H         51.99333       -2.61263        0.88233
H         51.62008       -4.92950        0.00008
H         50.18184       -4.38264        0.88904
H         50.18185       -4.38271       -0.88889
H         50.29661        2.70328        0.88237
H         50.29660        2.70322       -0.88244
H         48.65721        4.37927       -0.00009
H         47.79505        3.10510       -0.88885
H         47.79502        3.10518        0.88869
