27
DI-TERT-BUTYL_ETHER.gamout	Energy:    -390.3899212
O         34.96209       26.65489       -0.00292
C         33.60929       26.16480        0.06459
C         36.18066       25.89066       -0.08157
C         32.78225       27.41586       -0.27220
C         33.29087       25.06146       -0.95683
C         33.25500       25.70376        1.49114
C         36.44225       25.40713       -1.52097
C         37.24948       26.92851        0.29784
C         36.25136       24.71329        0.90431
H         31.70620       27.19948       -0.22238
H         33.01161       28.22119        0.43791
H         33.02418       27.77070       -1.28277
H         32.21700       24.83134       -0.91892
H         33.83153       24.13003       -0.75028
H         33.53148       25.39204       -1.97523
H         33.56427       26.46735        2.21696
H         32.16840       25.56281        1.58182
H         33.73305       24.75519        1.75886
H         37.47523       25.04221       -1.61435
H         35.77622       24.58939       -1.81796
H         36.30822       26.23830       -2.22613
H         38.25626       26.49151        0.24689
H         37.07474       27.29545        1.31776
H         37.20297       27.78468       -0.38781
H         36.07719       25.05251        1.93327
H         35.53051       23.92182        0.66587
H         37.25385       24.26518        0.86087
