30
DIBENZYLAMINE.gamout	Energy:    -596.4863766
C          6.27887        1.83047       -0.50301
C          6.85252        0.58117       -0.77850
C          7.13096        3.08370       -0.46065
C          4.90053        1.89447       -0.23996
N          6.49118        4.21237       -1.12194
C          7.25991        5.44810       -1.08281
C          6.54201        6.59696       -1.76352
C          7.22821        7.45507       -2.63420
C          5.18043        6.83813       -1.51553
C          4.52632        7.91280       -2.12172
C          5.22101        8.76420       -2.98828
C          6.57462        8.53119       -3.24361
C          6.07183       -0.57952       -0.78904
C          4.70192       -0.50536       -0.52453
C          4.11929        0.73697       -0.25065
H          7.92205        0.51580       -0.99077
H          7.30465        3.37541        0.59075
H          8.13313        2.85266       -0.87917
H          4.44638        2.86414       -0.03336
H          6.24032        3.97442       -2.07912
H          7.42956        5.69811       -0.02023
H          8.26958        5.34091       -1.53246
H          8.28546        7.27586       -2.84212
H          4.63803        6.16872       -0.84690
H          3.46796        8.08765       -1.91733
H          4.70829        9.60190       -3.46459
H          7.12469        9.18529       -3.92301
H          6.53582       -1.54279       -1.01007
H          4.08995       -1.40917       -0.53491
H          3.04914        0.80444       -0.04391
