18
DICHLONE.gamout	Energy:   -1453.2683659
C          1.67268        0.03215        0.08386
C          0.18615       -0.19270        0.06385
C          2.20913        1.27935        0.10656
Cl         2.64117       -1.39296        0.07612
O         -0.27234       -1.31748        0.04347
C         -0.68473        1.01826        0.07005
C          1.34985        2.51259        0.11355
Cl         3.90939        1.55800        0.12893
C         -2.35247        3.26715        0.08142
C         -0.96730        3.43261        0.09973
C         -2.90686        1.98110        0.05742
C         -2.07636        0.85967        0.05182
C         -0.12745        2.31165        0.09408
O          1.85225        3.61857        0.13435
H         -3.00296        4.14308        0.08585
H         -0.51474        4.42380        0.11836
H         -3.99024        1.85283        0.04309
H         -2.48796       -0.14930        0.03347
