5
DICHLOROMETHANE.gamout	Energy:    -959.2681280
Cl         0.54619       -0.04016        2.33626
C          0.70477        1.06010        0.93428
Cl         2.37029        1.66669        0.68994
H          0.41178        0.50781        0.03724
H          0.05532        1.92254        1.10814
