5
DICHLORODIFLUOROMETHANE.gamout	Energy:   -1157.5393704
C          0.94669        0.90214        0.00448
Cl         0.05850        2.44733       -0.02646
F          2.25671        1.14907       -0.00921
Cl         0.54557       -0.06094        1.44961
F          0.64468        0.20039       -1.08819
