5
DICHLOROMONOBROMOMETHANE.gamout	Energy:   -3532.3922118
C          0.89542        1.00752        0.03391
Br        -0.83315        1.92445       -0.03393
Cl         2.24988        2.16113       -0.02495
Cl         1.01166       -0.06716        1.44807
H          0.94572        0.38683       -0.86286
