6
DICHLOROACETONITRILE.gamout	Energy:   -1051.3784657
Cl         1.27211       -1.49005       -0.20279
Cl         1.26922        1.48934       -0.20303
N         -2.07423        0.00426       -0.14391
C          0.48135       -0.00050        0.41783
C         -0.94063       -0.00202        0.08770
H          0.61652       -0.00119        1.50554
