20
DIETHYLENE_TRIAMINE.gamout	Energy:    -324.0713146
N         -0.09359        9.94177        0.00636
C          1.20032        9.26541        0.01583
C          2.33988       10.28213        0.03391
N          3.63534        9.62246        0.04575
C          4.77818       10.52240        0.03377
N          7.23284       10.66408       -0.04200
C          6.09418        9.74800       -0.03558
H         -0.86256        9.29362       -0.13264
H         -0.26625       10.44445        0.87353
H          1.28586        8.65989       -0.89809
H          1.33212        8.56856        0.87007
H          2.19903       10.96764        0.90032
H          2.26920       10.90904       -0.86818
H          3.69953        8.98736        0.83911
H          4.69264       11.16578       -0.85887
H          4.81100       11.20384        0.90891
H          8.11707       10.17062        0.03469
H          7.26536       11.21599       -0.89596
H          6.18040        9.11284        0.86156
H          6.05279        9.06620       -0.90561
