17
DIETHYLENE_GLYCOL.gamout	Energy:    -383.6220466
O          1.74391        6.36482       -1.65406
C          1.98331        5.73877       -0.40210
C          3.01720        4.64810       -0.63181
O          3.27165        4.01393        0.60214
C          4.22764        2.97910        0.52721
O          5.37036        1.35801        1.82304
C          4.40353        2.39397        1.91925
H          1.09322        7.06615       -1.55193
H          2.37297        6.45542        0.34159
H          1.06307        5.28645        0.00683
H          2.63676        3.92406       -1.37671
H          3.94266        5.09419       -1.04224
H          3.89766        2.18798       -0.17179
H          5.19684        3.36638        0.16064
H          5.51244        0.95948        2.68714
H          3.43252        2.00945        2.27677
H          4.73205        3.19096        2.60861
