26
DIETHYL_SUCCINATE.gamout	Energy:    -613.4573937
O         -2.73379       -0.81504        0.18451
O          2.14257        0.47513       -0.61871
O         -2.73253        0.41865       -1.69650
O          2.14130       -0.75744        1.26304
C         -0.77327        0.43297       -0.27493
C          0.18187       -0.77228       -0.15828
C         -2.17319        0.03197       -0.69667
C          1.58191       -0.37125        0.26304
C         -4.07411       -1.27145       -0.09397
C          3.48305        0.93134       -0.34069
C         -4.48796       -2.21479        1.01677
C          3.89727        1.87343       -1.45233
H         -0.40268        1.15208       -1.01263
H         -0.84333        0.93904        0.70086
H         -0.18856       -1.49120        0.57967
H          0.25167       -1.27856       -1.13398
H         -4.73476       -0.39552       -0.16045
H         -4.07974       -1.76322       -1.07699
H          3.48888        1.42405        0.64186
H          4.14337        0.05522       -0.27332
H         -5.50774       -2.57908        0.83005
H         -3.81462       -3.08163        1.06635
H         -4.47486       -1.70560        1.99035
H          4.91719        2.23748       -1.26598
H          3.88394        1.36332       -2.42543
H          3.22429        2.74051       -1.50275
