30
DIETHYL_PHTHALATE.gamout	Energy:    -765.6857310
C         -1.47284        0.69580        0.51025
C         -0.74596       -0.60361        0.31338
C          0.64569       -0.63717        0.08734
C          1.39853        0.61025       -0.27154
O          0.97493        1.46792       -1.01109
O          2.62455        0.63489        0.27574
C          3.45935        1.76471       -0.05428
C          4.77616        1.60310        0.67689
C          1.31053       -1.87020        0.07070
C          0.60663       -3.06282        0.25461
C         -0.77492       -3.03061        0.45475
C         -1.44494       -1.80537        0.48364
O         -1.05473        1.61237        1.17826
O         -2.67389        0.69232       -0.08878
C         -3.49029        1.87103        0.08038
C         -4.76339        1.67531       -0.71565
H          3.59226        1.79509       -1.14513
H          2.93321        2.68276        0.24129
H          4.61717        1.56232        1.76327
H          5.29204        0.68437        0.36441
H          5.42848        2.45910        0.45406
H          2.38581       -1.88836       -0.10458
H          1.13811       -4.01552        0.23421
H         -1.33341       -3.95756        0.59463
H         -2.52062       -1.77222        0.65476
H         -3.68773        2.00685        1.15343
H         -2.91684        2.74252       -0.26384
H         -4.53928        1.53654       -1.78229
H         -5.32189        0.79861       -0.35894
H         -5.40443        2.56160       -0.60857
