18
DIETHYL_SULFITE.gamout	Energy:    -781.6210999
O          1.81317        1.59303        0.33843
S          1.84050        0.93333       -0.99267
O          0.52327       -0.09370       -1.06096
O          3.10520       -0.16029       -0.97216
C         -0.02070       -0.67289        0.14489
C          3.52708       -0.77192        0.26617
C         -1.50062       -0.92594       -0.07320
C          5.00712       -1.08941        0.16189
H          0.51526       -1.61295        0.34925
H          0.14988        0.01500        0.98467
H          3.32315       -0.08281        1.09751
H          2.93570       -1.68810        0.41914
H         -1.92647       -1.40386        0.82151
H         -2.03510        0.01672       -0.25091
H         -1.66244       -1.59204       -0.93159
H          5.33984       -1.59382        1.08108
H          5.20685       -1.75439       -0.68940
H          5.59422       -0.16976        0.03820
