18
DIETHANOLAMINE.gamout	Energy:    -363.7730651
C         -2.22482       -0.20419        0.03339
C         -1.07903        0.80672       -0.01926
C          1.36216        1.01913        0.03457
C          2.66127        0.22568        0.17056
O         -3.49861        0.40745       -0.09689
H         -2.15232       -0.80120        0.95831
H         -2.14237       -0.90133       -0.81433
H         -3.69316        0.92686        0.69145
O          3.81161        1.05517        0.16523
H          2.72285       -0.53730       -0.62888
H          2.66710       -0.30683        1.13061
H          3.89506        1.49350       -0.68946
N          0.20916        0.13457        0.03674
H         -1.15148        1.48028        0.85180
H         -1.20574        1.44026       -0.92205
H          1.41510        1.65256       -0.88026
H          1.27893        1.71082        0.88716
H          0.28563       -0.55061       -0.71230
