20
DIETHYL_OXALATE.gamout	Energy:    -534.9225873
C          0.54936        1.05271        0.77846
C          1.10117        1.15388       -0.63329
O          2.43043        1.72658       -0.64076
C          3.45725        0.90556       -0.44885
C          4.78563        1.70045       -0.45980
O          3.39080       -0.28534       -0.27761
O          5.81252        0.87542       -0.63371
O          4.85223        2.89520       -0.31790
C          7.14090        1.44995       -0.64500
C          7.69827        1.58989        0.76124
H         -0.48898        0.69214        0.73924
H          1.13507        0.34652        1.38163
H          0.55772        2.03560        1.26953
H          0.51066        1.84402       -1.24719
H          1.14179        0.17090       -1.12095
H          7.73044        0.74496       -1.24275
H          7.09682        2.41990       -1.15789
H          8.73569        1.95117        0.70706
H          7.11395        2.31139        1.34743
H          7.69443        0.62113        1.27977
