21
DIETHYLENE_GLYCOL_DINITRATE.gamout	Energy:    -792.1024892
O         35.81301       29.32749        0.17572
C         36.50795       30.01766        1.22652
C         37.44123       31.06515        0.65406
N         36.30236       28.03421       -0.16607
O         38.49490       30.41929       -0.02140
O         35.81319       27.62190       -1.17906
O         37.08796       27.51142        0.57797
C         39.40198       31.28640       -0.65991
C         40.54597       30.46809       -1.22524
O         41.35218       29.92952       -0.16493
N         41.12833       28.56357        0.17067
O         41.66656       28.25880        1.19689
O         40.48442       27.89235       -0.59004
H         35.72266       30.49449        1.82756
H         37.05286       29.29773        1.84772
H         36.88518       31.72812       -0.03466
H         37.82875       31.68519        1.48598
H         38.91122       31.83328       -1.48876
H         39.79626       32.03305        0.05427
H         40.17829       29.65604       -1.86281
H         41.22353       31.10761       -1.80590
