5
DIIODOMETHANE.gamout	Energy:    -634.6444123
I         -1.84315        0.06409        0.00000
C         -0.00000       -1.07184       -0.00000
I          1.84315        0.06409        0.00000
H         -0.00000       -1.68333        0.90446
H         -0.00000       -1.68333       -0.90446
