10
DIKETENE.gamout	Energy:    -304.8715374
C          4.41518        1.48236        1.01269
C          3.09326        1.54453        0.95143
C          1.88665        0.63699        0.89591
O          2.30228        2.71250        0.91461
C          1.12820        1.96622        0.86072
O          0.01391        2.36930        0.80927
H          5.02070        2.38794        1.04051
H          4.91218        0.51373        1.03562
H          1.77210        0.02561       -0.00984
H          1.68904        0.02555        1.78712
