24
DIMETHYL_ISOPHTHALATE.gamout	Energy:    -687.1704494
O          5.09474        3.14600        7.79777
C          4.55298        2.16495        7.05071
O          4.59857        0.99613        7.36287
C          3.89650        2.68423        5.81162
C          5.74193        2.73927        9.00902
C          3.28921        1.76457        4.94799
C          3.87265        4.05378        5.49804
C          2.65941        2.20413        3.77734
C          3.24538        4.49245        4.33101
C          2.02517        1.18162        2.88963
C          2.63930        3.57540        3.47074
O          1.45726        1.72690        1.79682
O          2.01444       -0.00784        3.11488
C          0.82610        0.81870        0.88728
H          6.11321        3.65881        9.47191
H          6.57081        2.05425        8.78797
H          5.02739        2.23297        9.67106
H          3.30614        0.70247        5.18872
H          4.34612        4.76546        6.17219
H          3.22830        5.55634        4.09028
H          2.14857        3.91330        2.55966
H          0.01926        0.27066        1.39136
H          1.55738        0.09836        0.49792
H          0.42531        1.43746        0.07836
