9
DIMETHYL_ETHER.gamout	Energy:    -154.8289882
C          2.83470        1.00306        1.05530
O          1.80511        1.71264        1.70024
C          0.68221        1.93507        0.88252
H          3.65647        0.88237        1.77250
H          2.49302        0.00223        0.72863
H          3.20856        1.55108        0.16937
H         -0.05645        2.48966        1.47508
H          0.94454        2.53061       -0.01301
H          0.23094        0.98174        0.54706
