13
DIMETHYL_SULFATE.gamout	Energy:    -778.2108238
C          0.30878        0.92801        0.26654
O          1.72043        1.22956        0.25095
S          2.70228        0.19606       -0.53553
O          2.02911       -0.31544       -1.71601
O          3.99549        0.85540       -0.56503
O          2.74653       -1.05935        0.49936
C          3.53674       -0.90776        1.69791
H         -0.14998        1.75455        0.81916
H         -0.08103        0.88626       -0.75784
H          0.12482       -0.02397        0.78319
H          3.44878       -1.86812        2.21642
H          4.58262       -0.70417        1.43813
H          3.13407       -0.09896        2.32306
