10
DIMETHYL_SULFOXIDE.gamout	Energy:    -552.8282169
C          0.84092        1.32756        0.60443
S          2.40047        2.07921        0.00386
C          3.53543        1.04761        1.00741
O          2.45767        3.47824        0.60502
H          0.78198        1.46309        1.69321
H          0.02129        1.86503        0.11239
H          0.81303        0.26292        0.33224
H          4.55212        1.39992        0.79453
H          3.29952        1.19552        2.07031
H          3.43304       -0.00798        0.71829
