26
DIPHENYL_CARBONATE.gamout	Energy:    -726.1829112
O          6.41989        2.96610       -0.98789
C          5.60026        4.00225       -1.24042
C          5.92952        1.69908       -0.67359
O          6.40107        5.05177       -1.49710
O          4.40027        3.99199       -1.23797
C          5.88846        6.30995       -1.81130
C          6.59414        1.03449        0.35798
C          6.22027       -0.27163        0.68144
C          4.90399        1.08389       -1.39384
C          4.53801       -0.22211       -1.05453
C          5.18971       -0.90288       -0.02152
C          6.53817        6.98237       -2.84737
C          6.14248        8.28153       -3.17259
C          4.85634        6.91046       -1.08823
C          4.46847        8.20976       -1.42932
C          5.10511        8.89815       -2.46675
H          7.39689        1.54678        0.88889
H          6.73759       -0.79567        1.48683
H          4.39384        1.61656       -2.19361
H          3.73474       -0.71091       -1.60837
H          4.89642       -1.92236        0.23300
H          7.34659        6.48116       -3.38019
H          6.64833        8.81139       -3.98147
H          4.35789        6.37197       -0.28491
H          3.65994        8.68726       -0.87327
H          4.79464        9.91221       -2.72257
