25
DIPHENYLMETHANE.gamout	Energy:    -501.9512215
C          2.73767        2.71798        1.06088
C          4.08178        2.23850        1.58147
C          4.32033        0.87841        1.82519
C          5.56585        0.43715        2.28594
C          6.59570        1.35327        2.50936
C          6.36981        2.71403        2.27097
C          5.12560        3.15022        1.81299
C          2.06014        3.77435        1.91752
C          1.80236        3.53345        3.27774
C          1.15910        4.48938        4.06546
C          0.76108        5.70999        3.50785
C          1.01416        5.96312        2.15807
C          1.65824        5.00147        1.37136
H          2.06793        1.84907        0.96286
H          2.86520        3.11831        0.04284
H          3.52215        0.15365        1.65032
H          5.72921       -0.62655        2.47032
H          7.56820        1.01225        2.86859
H          7.16804        3.43871        2.44359
H          4.95646        4.21477        1.63818
H          2.11643        2.58767        3.72400
H          0.96703        4.28174        5.12005
H          0.25929        6.45812        4.12393
H          0.71065        6.91255        1.71251
H          1.84912        5.20788        0.31592
