41
DMDA+1.gamout	Energy:    -527.9456385
N          2.12846        1.65521       -1.53532
C          2.19388        2.54294       -0.33022
C          3.49955        1.35575       -2.06120
C          1.21905        2.20110       -2.62301
C         -0.23466        2.32722       -2.18657
C         -1.14909        2.72134       -3.35633
C         -2.61369        2.86833       -2.93318
C         -3.54283        3.22265       -4.09734
C         -5.01380        3.33746       -3.69005
C         -5.94825        3.64053       -4.86457
C         -7.42335        3.71764       -4.46508
C         -8.36482        4.00095       -5.63904
C         -9.83709        4.06479       -5.23054
H          1.71533        0.76548       -1.23390
H          1.20281        2.61779        0.12254
H          2.89921        2.11217        0.38748
H          2.53863        3.53231       -0.65001
H          3.41603        0.65441       -2.89750
H          4.10014        0.91514       -1.25910
H          3.95455        2.29289       -2.39976
H          1.31271        1.50681       -3.46735
H          1.64501        3.16702       -2.92632
H         -0.33493        3.08016       -1.39127
H         -0.57856        1.36551       -1.76753
H         -1.07624        1.96491       -4.15494
H         -0.79976        3.67092       -3.79566
H         -2.69376        3.64197       -2.15047
H         -2.95633        1.92732       -2.46951
H         -3.44609        2.45612       -4.88531
H         -3.21308        4.17143       -4.55427
H         -5.12352        4.12327       -2.92262
H         -5.33176        2.39645       -3.20794
H         -5.82146        2.86331       -5.63800
H         -5.64727        4.59082       -5.33828
H         -7.55200        4.50026       -3.69720
H         -7.71699        2.76909       -3.98192
H         -8.22843        3.22159       -6.40795
H         -8.07255        4.95161       -6.11645
H        -10.16643        3.11412       -4.78302
H        -10.48532        4.27057       -6.09447
H        -10.00828        4.85833       -4.48690
