43
DMIM+1.gamout	Energy:    -658.1589537
C          2.52464        3.06027        3.20980
N          1.65574        2.87892        2.04589
H          3.31944        3.77576        2.96413
H          2.97141        2.09997        3.49406
H          1.93392        3.44823        4.04511
C          0.34140        3.12564        1.99371
N         -0.10279        2.86153        0.76021
H         -0.26500        3.49145        2.81664
C          2.06740        2.43994        0.80489
C         -1.48374        3.08086        0.28062
C         -2.13604        1.83566       -0.32865
H         -1.44208        3.89024       -0.46102
H         -2.05518        3.44975        1.14131
C         -3.53268        2.16946       -0.88408
H         -2.18948        1.03611        0.42419
H         -1.50636        1.46114       -1.15072
C         -4.12518        1.16500       -1.89269
H         -3.46565        3.14451       -1.39609
H         -4.24025        2.31631       -0.05059
C         -4.79810       -0.11097       -1.35548
H         -3.35328        0.89229       -2.63372
H         -4.88736        1.71774       -2.45996
C         -3.89429       -1.23554       -0.82472
H         -5.40137       -0.52544       -2.18055
H         -5.53026        0.15964       -0.57604
C         -4.67381       -2.55167       -0.65504
H         -3.05384       -1.38358       -1.52152
H         -3.44857       -0.95263        0.14425
C         -3.96427       -3.72500        0.04054
H         -5.01518       -2.88188       -1.65106
H         -5.59408       -2.33377       -0.08712
C         -2.76573       -4.34991       -0.69589
H         -3.65516       -3.42603        1.05807
H         -4.72178       -4.51035        0.18324
C         -1.41453       -3.66855       -0.45665
H         -2.97971       -4.38406       -1.77735
H         -2.67754       -5.40034       -0.38039
C          0.96455        2.43168       -0.00146
H          0.86665        2.16060       -1.04558
H          3.10057        2.18084        0.59732
H         -1.39640       -2.63886       -0.84052
H         -0.60234       -4.22138       -0.95045
H         -1.18431       -3.62889        0.61975
