25
EMMOR+1.gamout	Energy:    -405.5703000
C         -2.70385        1.09439        1.09222
C         -1.40900        1.67702       -0.76598
C         -1.25304        0.22010       -1.18965
C         -2.62267       -0.39407        0.76706
N         -1.37505       -0.74805       -0.02331
H         -3.47663       -0.68130        0.14256
H         -2.62643       -0.99828        1.67901
H         -0.28425        0.03745       -1.66853
H         -2.05188       -0.04021       -1.89310
C         -0.15242       -0.67409        0.83978
H          0.70734       -1.02158        0.25917
H         -0.29207       -1.30578        1.71979
H          0.01541        0.35555        1.15885
C         -1.50812       -2.14970       -0.60995
C         -1.64952       -3.28081        0.39378
H         -2.38305       -2.10963       -1.26822
H         -0.62055       -2.29084       -1.23921
H         -2.54237       -3.18245        1.02367
H         -0.76732       -3.40549        1.03350
H         -1.76362       -4.20915       -0.18070
O         -2.62505        1.87314       -0.08025
H         -1.93003        1.39896        1.82030
H         -3.67952        1.28895        1.55301
H         -0.55455        2.02736       -0.15993
H         -1.43988        2.29054       -1.67435
