24
EMPYR+1.gamout	Energy:    -330.4483540
C         -1.77354       -1.19672       -0.48536
C         -0.88157       -0.05076       -0.97145
C          0.03411       -0.74956       -1.96827
H         -0.31154        0.38776       -0.13892
H         -1.43923        0.76134       -1.45249
C         -0.78450       -2.34033       -0.29987
H         -2.53053       -1.44968       -1.24179
H         -2.30162       -0.97139        0.44811
N          0.27905       -2.15216       -1.39687
H         -1.21319       -3.34182       -0.39358
H         -0.27227       -2.27130        0.66504
H          0.99749       -0.26253       -2.13967
H         -0.46986       -0.87353       -2.93192
C          1.64445       -2.23629       -0.79394
H          1.74336       -1.44951       -0.04072
H          2.39945       -2.09623       -1.57049
H          1.76606       -3.21723       -0.32371
C          0.09129       -3.22090       -2.45926
C          1.00754       -3.11094       -3.66609
H         -0.96097       -3.15383       -2.75968
H          0.23670       -4.18157       -1.95024
H          0.89457       -2.16221       -4.20630
H          2.06416       -3.25136       -3.40961
H          0.73447       -3.91496       -4.36153
