27
EPHEDRINE_SULFATE.gamout	Energy:    -519.3900526
O          0.01151       -1.48883        3.02168
N         -1.83419       -0.27317        0.09254
C         -1.48831       -0.40110        1.50610
C         -0.23303       -1.29540        1.62623
C          0.98573       -0.71283        0.93301
C         -2.63539       -0.91218        2.39089
C          1.61533        0.42465        1.46398
C          1.51658       -1.29609       -0.22510
C         -2.67022        0.86246       -0.25898
C          2.74320        0.96876        0.84725
C          2.64709       -0.75423       -0.84494
C          3.26287        0.38121       -0.31125
H         -1.20102        0.60529        1.85215
H         -0.47239       -2.26946        1.15727
H         -2.33865       -0.94712        3.44598
H         -3.51542       -0.26128        2.29758
H         -2.92923       -1.92985        2.08678
H         -2.23471       -1.13965       -0.25811
H          1.21741        0.88137        2.37159
H          1.03837       -2.18232       -0.64641
H          0.87768       -1.89559        3.13449
H         -2.88179        0.83971       -1.33694
H         -2.12854        1.79625       -0.04606
H         -3.64142        0.90424        0.27437
H          3.21906        1.85441        1.27293
H          3.04909       -1.22046       -1.74656
H          4.14551        0.80581       -0.79295
