18
EPY+1.gamout	Energy:    -326.8554355
N          0.18254        0.78210        0.75372
C          0.56362        1.92541        1.36969
C          0.09722        3.15425        0.94217
C         -0.78413        3.21111       -0.14161
C         -0.66497        0.81732       -0.29285
C         -1.16538        2.02369       -0.76215
H          1.25077        1.81686        2.20705
H          0.42513        4.05366        1.45995
H         -1.16459        4.17113       -0.49608
H         -1.84530        2.01283       -1.61050
H         -0.93227       -0.13227       -0.74351
C          0.74059       -0.50296        1.28972
C          0.29891       -1.75772        0.56365
H          0.61836       -1.76837       -0.48795
H         -0.78660       -1.91756        0.62232
H          0.78014       -2.60997        1.05942
H          0.44230       -0.54070        2.34593
H          1.83175       -0.39390        1.24996
