8
ETHANE.gamout	Energy:     -79.7121057
H          0.54007        1.76963       -0.00542
C          0.71702        0.89802        0.64270
H          0.48969       -0.00349        0.05373
H         -0.01012        0.94608        1.46723
C          2.15368        0.87439        1.16561
H          2.33130        0.00144        1.81171
H          2.88102        0.82911        0.34111
H          2.38004        1.77466        1.75686
