23
ETHYL_P-AMINOBENZOATE.gamout	Energy:    -554.1193345
O         -2.69885       -0.56617        1.35725
O         -1.73706       -2.22411        2.53680
N          3.35640        0.51393       -0.27716
C         -0.35061       -0.78426        1.22238
C         -0.27401        0.31298        0.34579
C          0.84150       -1.43635        1.58436
C          2.14552        0.08972        0.21250
C          0.94832        0.74518       -0.15230
C          2.06815       -1.01295        1.09332
C         -1.63115       -1.28008        1.77909
C         -3.98832       -0.97462        1.84451
C         -5.02871       -0.04388        1.25506
H         -1.18783        0.82907        0.05500
H          0.78273       -2.28723        2.26358
H          0.99015        1.59907       -0.83192
H          2.98379       -1.53142        1.38576
H         -4.16037       -2.02156        1.55553
H         -3.98020       -0.93857        2.94354
H         -6.02803       -0.33114        1.61079
H         -5.02395       -0.09420        0.15716
H         -4.83927        0.99589        1.55692
H          4.21484        0.05256       -0.02202
H          3.42170        1.29840       -0.90572
