17
ETHYL_PROPIONATE.gamout	Energy:    -346.5870967
O          4.50438        1.12435        1.23779
C          3.33173        1.77183        1.09930
C          2.16120        0.81263        1.18056
O          3.24916        2.96707        0.93394
C          5.70698        1.91762        1.17447
C          0.80594        1.48473        0.98393
C          6.89162        0.98693        1.33191
H          2.22048        0.30554        2.15724
H          2.33384        0.02139        0.43378
H          5.66820        2.67623        1.96950
H          5.72496        2.45203        0.21380
H          0.63213        2.25360        1.74847
H          0.74724        1.97361        0.00223
H          0.00011        0.74069        1.05022
H          6.85571        0.46562        2.29860
H          6.91009        0.23483        0.53078
H          7.82449        1.56596        1.28488
