21
ETHYL_TERT-BUTYL_SULFIDE.gamout	Energy:    -634.7683462
S         39.96948       19.85274       -0.02531
C         38.10106       19.97379        0.00493
C         40.29481       18.04592       -0.00656
C         37.82551       21.48535       -0.01014
C         37.49530       19.31431       -1.24073
C         37.53795       19.34684        1.28679
C         41.80172       17.79933       -0.03421
H         39.85462       17.60541        0.89887
H         39.81782       17.58073       -0.88048
H         36.73961       21.66449        0.00722
H         38.26682       21.97974        0.86646
H         38.23430       21.95563       -0.91531
H         36.40261       19.45751       -1.24681
H         37.68164       18.23210       -1.26268
H         37.90705       19.75440       -2.15841
H         37.97886       19.81159        2.17842
H         36.44586       19.48933        1.32467
H         37.72686       18.26583        1.33094
H         42.00545       16.71862       -0.02249
H         42.25773       18.22289       -0.93996
H         42.29463       18.24874        0.83923
