10
ETHYLENE_CARBONATE.gamout	Energy:    -342.0009661
O         -0.00987       -1.11110        0.01888
C          0.77447       -0.00569       -0.01159
C         -1.39636       -0.76398        0.04179
C         -1.38590        0.78169        0.04251
O          0.00456        1.11018       -0.00347
O          1.96489       -0.01374       -0.04114
H         -1.85153       -1.19278        0.94421
H         -1.88098       -1.19126       -0.84615
H         -1.82018        1.21519        0.95318
H         -1.87937        1.21687       -0.83642
