15
ETHYL_ACRYLATE.gamout	Energy:    -345.3582076
O          3.79357        2.17350        1.03903
C          2.94858        1.13217        0.93202
C          1.51531        1.52086        0.99538
O          3.31813       -0.01516        0.79477
C          5.20340        1.87816        0.98975
C          1.06556        2.77568        1.10795
C          5.96320        3.17139        1.20069
H          0.83351        0.67036        0.93683
H          5.43334        1.13109        1.76252
H          5.43046        1.42154        0.01536
H          1.75167        3.62156        1.16480
H         -0.00445        2.98550        1.14437
H          5.73454        3.60776        2.18314
H          7.04349        2.97508        1.15239
H          5.71011        3.90678        0.42432
