10
ETHYLENE_DICYANIDE.gamout	Energy:    -263.9629012
C          3.31019        1.03731        0.91911
C          1.92778        1.73539        0.88550
C          0.83103        0.76555        0.86013
C          4.40695        2.00716        0.94415
N         -0.02294       -0.01544        0.83984
N          5.26098        2.78813        0.96285
H          3.38684        0.39202        1.80680
H          3.42874        0.38977        0.03767
H          1.80918        2.38256        1.76722
H          1.85115        2.38106       -0.00191
