23
ETHYL_VALERATE.gamout	Energy:    -425.1041568
C          0.60272        0.32628       -0.00099
C         -0.62493       -0.56128       -0.00091
C         -1.94838        0.20052        0.00024
C         -3.16507       -0.73145        0.00035
C         -4.50016        0.01587        0.00153
O          0.59972        1.53549       -0.00256
O          1.73142       -0.40917        0.00064
C          2.98497        0.30194        0.00015
C          4.10140       -0.72342        0.00148
H         -0.54865       -1.22760       -0.87617
H         -0.54783       -1.22878        0.87336
H         -1.98581        0.86291        0.87923
H         -1.98677        0.86403       -0.87785
H         -3.11507       -1.39371       -0.88084
H         -3.11409       -1.39474        0.88071
H         -4.59423        0.65860        0.89017
H         -4.59520        0.65967       -0.88624
H         -5.34877       -0.68340        0.00158
H          3.02341        0.94974       -0.88723
H          3.02304        0.95165        0.88616
H          4.04480       -1.36200        0.89396
H          4.04515       -1.36384       -0.88971
H          5.07410       -0.21205        0.00113
