18
ETHYLCYCLOBUTANE.gamout	Energy:    -235.5137233
C          3.95358        0.98185        1.14279
C          5.22967        1.82513        1.20472
C          2.73224        1.67980        1.72719
C          1.34214        0.99529        1.61107
C          2.13172        2.91345        0.99086
C          0.71516        2.38852        1.34320
H          4.11068        0.03017        1.67882
H          3.73951        0.71117        0.09451
H          5.10969        2.76985        0.65263
H          5.48721        2.07823        2.24510
H          6.08584        1.29002        0.76848
H          2.92752        1.94204        2.78104
H          1.29168        0.35107        0.71985
H          0.97919        0.42313        2.47649
H          2.41349        3.91436        1.34586
H          2.32439        2.86033       -0.09191
H         -0.06269        2.45964        0.57088
H          0.33059        2.84562        2.26631
