22
ETHYLPARABEN.gamout	Energy:    -573.9662678
O          3.47028        4.97170       -0.07199
C          4.04064        3.75090       -0.02642
O          3.49448        2.75238       -0.44755
C          5.39256        3.77318        0.59496
C          2.15308        5.05993       -0.64709
C          5.98197        4.95636        1.06824
C          6.10142        2.56474        0.71416
C          1.71472        6.50894       -0.58802
C          7.24825        4.93475        1.64749
C          7.36523        2.53271        1.29113
C          7.94396        3.72151        1.76126
O          9.18159        3.63896        2.31782
H          1.47806        4.40172       -0.08158
H          2.19214        4.68053       -1.67810
H          5.44119        5.89717        0.98074
H          5.63722        1.65030        0.34454
H          0.70870        6.60969       -1.01838
H          2.40079        7.15053       -1.15847
H          1.68450        6.86614        0.45087
H          7.70007        5.86008        2.01374
H          7.92201        1.60047        1.38846
H          9.48900        4.50593        2.60759
