8
ETHYLENEIMINE.gamout	Energy:    -133.7474274
C          2.03977        1.42512        0.95398
C          0.55936        1.55399        0.93877
N          1.19006        0.26928        1.25062
H          2.59095        1.89563        1.77311
H          2.58806        1.36434        0.01093
H          0.02802        1.58759       -0.01532
H          0.08136        2.11407        1.74746
H          1.16251        0.06971        2.24810
