20
ETHYL_PHENYL_KETONE.gamout	Energy:    -423.6628365
C          0.23470       -0.08411        0.00093
C          1.09176       -1.19928        0.00155
C          2.47498       -1.03152        0.00085
C          3.02508        0.25628       -0.00056
C          2.18381        1.37268       -0.00100
C          0.79720        1.20502       -0.00023
C         -1.24985       -0.32893       -0.00023
O         -1.68508       -1.46699       -0.00228
C         -2.19216        0.86779        0.00132
C         -3.66844        0.48530        0.00022
H          0.64435       -2.19337        0.00262
H          3.12938       -1.90518        0.00140
H          4.10858        0.38905       -0.00132
H          2.60929        2.37783       -0.00185
H          0.15825        2.08757       -0.00043
H         -1.94965        1.49102        0.87881
H         -1.94924        1.49398       -0.87392
H         -4.29672        1.38668        0.00160
H         -3.92005       -0.11320       -0.88536
H         -3.92057       -0.11627        0.88356
