18
ETHYL_ISOPROPYL_ETHER.gamout	Energy:    -272.6181360
C          0.99266        0.01976        0.32373
C          1.47741       -1.36298       -0.12057
C          1.93519        1.13173       -0.12091
O         -0.29028        0.33256       -0.21200
C         -1.39153       -0.32521        0.38225
C         -2.67303        0.21153       -0.22991
H          0.91995        0.03326        1.42991
H          2.45926       -1.58460        0.32349
H          0.78585       -2.15761        0.19067
H          1.57581       -1.39614       -1.21561
H          1.98384        1.16795       -1.21900
H          1.58045        2.10562        0.24193
H          2.94954        0.95981        0.26595
H         -1.32865       -1.41846        0.22972
H         -1.38281       -0.15167        1.47646
H         -2.69179        0.02384       -1.31249
H         -3.54579       -0.28015        0.22313
H         -2.75604        1.29465       -0.06438
