26
ETHYL_SUCCINATE.gamout	Energy:    -613.4611704
C          5.51817        2.34586        1.91534
C          4.25217        1.73095        1.35733
O          3.15732        2.28222        1.90730
O          4.20840        0.86651        0.51142
C          6.76261        1.52691        1.59190
C          1.87584        1.82001        1.43207
C          8.04906        2.27924        1.85669
C          0.79871        2.58087        2.17721
O          9.10602        1.44922        1.85676
O          8.14139        3.47334        2.03088
C         10.40884        2.03776        2.05043
C         11.43591        0.92570        1.99625
H          5.39624        2.49004        2.99790
H          5.61032        3.35961        1.49536
H          6.78452        0.58185        2.15221
H          6.75933        1.23441        0.53032
H          1.82350        1.98644        0.34686
H          1.80900        0.73657        1.60447
H         -0.19110        2.24803        1.83560
H          0.88337        3.66107        1.99564
H          0.87004        2.40357        3.25911
H         10.57421        2.79134        1.26769
H         10.41569        2.55877        3.01823
H         11.41187        0.41514        1.02374
H         11.25046        0.18285        2.78412
H         12.44115        1.34402        2.14361
