14
ETHYL_CHLOROACETATE.gamout	Energy:    -766.7310982
Cl         0.95980       -0.00638       -1.58077
O         -1.14143        1.06982        0.44386
O          0.56464        2.21012        1.37166
C         -2.08885        2.06472        0.89406
C         -3.46668        1.63826        0.43404
C          0.14389        1.27227        0.73630
C          1.03352        0.15482        0.21848
H         -1.79336        3.03653        0.47423
H         -2.01991        2.13883        1.98855
H         -3.74011        0.66251        0.85901
H         -4.20859        2.37917        0.76304
H         -3.50965        1.56733       -0.66141
H          0.71493       -0.80773        0.63806
H          2.06869        0.37248        0.49237
