7
ETHYLENE_OXIDE.gamout	Energy:    -153.5972756
C          0.60487        0.47927        0.92344
O          1.51707        1.57434        0.93121
C          2.05699        0.25584        0.91293
H          0.04182        0.33545        1.85171
H          0.03146        0.35683       -0.00156
H          2.55374       -0.03148       -0.01986
H          2.56361       -0.05287        1.83351
