12
ETHYLENEDIAMINE.gamout	Energy:    -190.2779365
N          0.76359        1.67472        1.42940
C          2.00098        0.89817        1.40816
C          3.19147        1.78805        1.04782
N          4.42884        1.01146        1.02655
H         -0.01749        1.13613        1.79160
H          0.50509        1.99451        0.49880
H          1.99011        0.03696        0.71346
H          2.15888        0.48724        2.41890
H          3.20240        2.64927        1.74250
H          3.03360        2.19899        0.03708
H          4.68735        0.69164        1.95714
H          5.20993        1.55002        0.66433
