26
FLUORANTHENE.gamout	Energy:    -614.9457444
C          3.94653        0.75115        1.97964
C          5.22106        0.96443        1.37871
C          6.38961        1.05144        2.12084
C          3.87267        0.62602        3.35518
C          2.79084        0.40430        4.33742
C          5.07589        0.71686        4.10511
C          6.34697        0.92671        3.54135
C          4.83343        0.56847        5.49679
C          7.43752        0.98891        4.45884
C          7.21208        0.84523        5.81986
C          5.91095        0.63315        6.36147
C          3.37665        0.36973        5.64187
C          1.41506        0.24000        4.18275
C          2.57663        0.17222        6.76619
C          1.19468        0.00806        6.59813
C          0.62047        0.04135        5.32095
H          3.05799        0.69039        1.34859
H          5.27588        1.06263        0.29290
H          7.34379        1.21579        1.61678
H          8.45186        1.14984        4.08904
H          8.06074        0.89592        6.50453
H          5.78892        0.52622        7.44083
H          0.95776        0.26444        3.19197
H          3.01586        0.14462        7.76505
H          0.55940       -0.14743        7.47169
H         -0.45735       -0.08861        5.21070
