12
FLUOROBENZENE.gamout	Energy:    -331.0781904
C          6.32979        1.86793       -0.67286
C          6.83659        0.61673       -0.33869
C          4.94309        2.03368       -0.71918
C          4.09222        0.96225       -0.43505
C          4.62909       -0.28393       -0.10221
C          6.01333       -0.46668       -0.05125
F          8.17642        0.44692       -0.29149
H          7.01542        2.68688       -0.89005
H          4.52714        3.00846       -0.97956
H          3.01145        1.09832       -0.47295
H          3.96772       -1.12297        0.12031
H          6.45770       -1.42814        0.20555
