4
FOR-1.gamout	Energy:    -188.9958892
C          0.59812       -0.63610        0.66194
O         -0.27474        0.22780        0.90988
O          1.79771       -0.49989        0.32754
H          0.24351       -1.72100        0.75554
