16
FORMANILIDE.gamout	Energy:    -400.4449096
C          6.32102        1.80073       -0.66934
C          6.81105        0.56690       -0.21049
C          4.94823        2.00472       -0.81286
C          4.04481        0.97875       -0.51897
C          4.53163       -0.24813       -0.05925
C          5.90225       -0.45552        0.11073
N          8.20407        0.39801       -0.06658
C          8.91467       -0.76687       -0.17855
O         10.12174       -0.83429       -0.05769
H          7.02391        2.59743       -0.92246
H          4.58423        2.97098       -1.16681
H          2.97221        1.13698       -0.63802
H          3.83722       -1.05222        0.19110
H          6.25780       -1.40204        0.51715
H          8.77538        1.23092        0.03399
H          8.28284       -1.65091       -0.40481
