5
FORMIC_ACID.gamout	Energy:    -189.5430669
O          1.76691        1.25151        2.69157
C          1.11859        0.63219        1.68458
O          1.67702        0.24572        0.70180
H          1.15429        1.49198        3.40080
H          0.02469        0.51924        1.86014
