9
FURAN.gamout	Energy:    -229.7358402
C          1.86517        2.62576        0.03078
C          1.08293        1.50751        0.05843
O          1.85912        0.39168        0.09361
C          3.15663        0.79784        0.08837
C          3.22488        2.16047        0.05037
H          1.51953        3.65543        0.00023
H          0.01027        1.34555        0.05782
H          3.90458        0.01273        0.11406
H          4.12986        2.76170        0.03778
