11
FURFURAL.gamout	Energy:    -342.9345690
C         -5.43337       -0.74255       -0.39771
O         -4.93976       -1.89318       -0.95363
C         -6.80659       -0.73965       -0.49020
C         -4.46293        0.19575        0.14966
C         -5.98966       -2.61190       -1.39368
C         -7.16773       -1.95512       -1.13759
O         -4.75830        1.25307        0.67113
H         -7.45831        0.05072       -0.12972
H         -3.40137       -0.13398        0.05358
H         -5.76143       -3.56279       -1.86523
H         -8.16611       -2.30559       -1.38535
