18
GLUTAMATE-1.gamout	Energy:    -550.4643285
O          2.51688        1.28401        0.54464
O          2.72074       -0.12445       -1.21721
O         -1.56858       -1.71138       -0.94350
O         -3.16608       -0.18506       -0.72045
N          0.98246       -1.87129       -0.36351
C          1.25655       -0.75733        0.57440
C         -0.02671       -0.06086        1.04971
C         -0.94203        0.47116       -0.07577
C          2.26678        0.24940       -0.10351
C         -1.99408       -0.50222       -0.60418
H          1.77729       -1.13542        1.46983
H          0.29445        0.78878        1.66481
H         -0.60012       -0.73943        1.70313
H         -1.49460        1.35369        0.26736
H         -0.32008        0.79584       -0.92697
H          1.63143       -1.68199       -1.14534
H         -0.54909       -1.81966       -0.77112
H          1.23108       -2.77047        0.03947
