19
GLUTAMINATE-1.gamout	Energy:    -530.6091256
O          3.35298        0.65697       -0.63389
O         -0.51737       -1.81166        0.22752
O         -2.48116       -0.82354       -0.27627
N         -1.72643        1.50362        1.03598
N          2.09778       -1.02920        0.25018
C          0.00823        1.23919       -0.66558
C         -0.70454        0.57155        0.52909
C          1.07272        0.40388       -1.40711
C          2.28959        0.03192       -0.56313
C         -1.30037       -0.81860        0.12580
H          0.45488        2.18010       -0.30872
H         -0.76964        1.52078       -1.39489
H          0.03182        0.40573        1.32881
H          0.60874       -0.51627       -1.79191
H          1.45036        0.98406       -2.25886
H         -1.96944        1.24016        1.98910
H         -2.57033        1.30412        0.49234
H          1.14397       -1.45575        0.33739
H          2.84942       -1.27715        0.87844
