9
GLYCINATE-1.gamout	Energy:    -283.5501348
O          1.43107       -0.04001        0.86367
O          0.57687        0.04555       -1.23315
N         -2.00141       -0.44929       -0.37216
C         -0.93821       -0.18284        0.61026
C          0.50452       -0.05620        0.01902
H         -1.15065        0.76761        1.13275
H         -0.93249       -0.95974        1.39004
H         -2.02767       -1.45230       -0.55129
H         -1.63724       -0.06259       -1.24923
