17
GUAIACOL.gamout	Energy:    -421.4676640
O          0.26974        0.85159       -0.44817
O         -0.50421       -1.66120       -0.47981
C         -1.05250        0.63257       -0.23114
C         -1.46490       -0.72165       -0.24981
C         -2.00442        1.63120        0.00124
C         -2.80626       -1.03846       -0.03852
C         -3.35074        1.29988        0.21264
C         -3.75398       -0.03274        0.19298
C          0.75661        2.17732       -0.44832
H         -1.70231        2.67708        0.01847
H         -3.11147       -2.08828       -0.05576
H         -4.07725        2.09361        0.39178
H         -4.79892       -0.29952        0.35589
H          0.28193        2.77989       -1.24097
H          1.83230        2.10904       -0.64153
H          0.59238        2.66783        0.52599
H         -0.89306       -2.54233       -0.47146
