53
HDA+1.gamout	Energy:    -684.9813843
N          0.97045        0.00795        0.33505
C          0.54924       -0.13142       -1.12063
C          0.98787        1.08701       -1.91912
C          0.57573        0.98471       -3.39468
C          1.00360        2.20918       -4.21247
C          0.57361        2.13008       -5.68109
C          1.01799        3.34000       -6.51069
C          0.54983        3.29050       -7.96945
C          1.02847        4.48211       -8.80697
C          0.52284        4.46310      -10.25338
C          1.03286        5.63348      -11.10124
C          0.50856        5.62437      -12.53980
C          1.03729        6.77830      -13.39631
C          0.50209        6.76681      -14.83072
C          1.03789        7.90689      -15.70197
C          0.49886        7.88955      -17.13530
C          1.04012        9.02535      -18.00645
H          0.68950       -0.79930        0.90489
H          0.55383        0.84773        0.75673
H          1.99021        0.10688        0.41327
H         -0.54083       -0.25853       -1.11331
H          1.00898       -1.06029       -1.48243
H          2.08393        1.19877       -1.85346
H          0.54229        1.99649       -1.48050
H         -0.51846        0.86464       -3.45927
H          1.01634        0.07573       -3.83622
H          2.10010        2.31979       -4.15805
H          0.57749        3.12009       -3.75871
H         -0.52435        2.03385       -5.73123
H          0.98314        1.20940       -6.13033
H          2.11861        3.41492       -6.48365
H          0.63808        4.26431       -6.04228
H         -0.55255        3.24459       -7.99417
H          0.90355        2.35413       -8.43457
H          2.13203        4.50466       -8.80745
H          0.70676        5.42164       -8.32481
H         -0.58096        4.46902      -10.25215
H          0.81957        3.51388      -10.73239
H          2.13644        5.61716      -11.11834
H          0.75199        6.58644      -10.62029
H         -0.59455        5.65995      -12.52630
H          0.77429        4.66649      -13.01958
H          2.14035        6.73954      -13.41986
H          0.77848        7.73894      -12.91788
H         -0.60060        6.81499      -14.80703
H          0.75203        5.80060      -15.30255
H          2.14059        7.85728      -15.72745
H          0.78962        8.87449      -15.23158
H         -0.60286        7.94136      -17.10628
H          0.74377        6.91971      -17.60068
H          0.78266       10.00977      -17.58472
H          0.63051        8.98153      -19.02607
H          2.13751        8.97758      -18.08525
