19
HEX-1.gamout	Energy:    -385.2958490
O         -3.52242        2.77000        0.00048
O         -3.69897        0.51360       -0.00298
C          0.61722        0.04139        0.00068
C         -0.91629        0.08991        0.00050
C          1.20191       -1.37635        0.00015
C         -1.50149        1.50330        0.00033
C          2.73300       -1.41767       -0.00049
C         -3.06800        1.59909       -0.00096
H          1.00180        0.58867        0.88107
H          1.00063        0.58754       -0.88127
H         -1.30558       -0.45703       -0.87385
H         -1.30453       -0.45687        0.87546
H          0.82321       -1.92451        0.88025
H          0.82257       -1.92517       -0.87922
H         -1.14401        2.06927        0.87923
H         -1.14204        2.06976       -0.87757
H          3.11464       -2.45150       -0.00031
H          3.14397       -0.91187       -0.88922
H          3.14459       -0.91139        0.88770
