12
HEXACHLOROBENZENE.gamout	Energy:   -2988.3781271
C          6.33729        1.86559       -0.67224
C          6.87597        0.61141       -0.33731
C          4.94368        2.04130       -0.72114
Cl         7.39180        3.19549       -1.02498
Cl         4.27905        3.58808       -1.13448
C          4.08896        0.96289       -0.43518
C          4.62764       -0.29129       -0.10026
Cl         2.37013        1.17982       -0.49561
Cl         3.57314       -1.62119        0.25248
C          6.02123       -0.46697       -0.05128
Cl         6.68585       -2.01377        0.36198
Cl         8.59481        0.39446       -0.27689
