24
HEXSO4-1.gamout	Energy:    -934.7575776
O          2.96821       -1.13377       -0.49198
O          1.38053        0.72511        0.09152
S          2.77721        0.23918        0.05316
O          3.59241        0.52824        1.26570
O          3.44854        1.26433       -1.15556
C          4.81862        1.03568       -1.42349
C          5.29844        2.03065       -2.47613
C          6.78041        1.84465       -2.82179
C          7.30401        2.83533       -3.86653
C          8.78708        2.65235       -4.20637
C          9.31060        3.64303       -5.24938
H          4.96531        0.00063       -1.78240
H          5.40859        1.15153       -0.49619
H          5.12663        3.05518       -2.10543
H          4.68496        1.91906       -3.38607
H          6.94247        0.81473       -3.18533
H          7.38229        1.93834       -1.90072
H          7.13933        3.86528       -3.50363
H          6.70620        2.74082       -4.79052
H          8.94919        1.62196       -4.56643
H          9.38201        2.74577       -3.28157
H          8.76561        3.54699       -6.20229
H         10.37853        3.47968       -5.46002
H          9.19432        4.68374       -4.90684
