39
HMPIP+1.gamout	Energy:    -526.7434500
C          2.37463        3.38414       -0.38706
C          3.83757        3.63089       -0.05670
C          4.67919        3.75926       -1.34232
H          4.22069        2.82921        0.59114
H          3.89454        4.54815        0.54452
C          4.07815        2.91388       -2.48222
H          5.71043        3.44505       -1.13855
H          4.73163        4.80949       -1.65503
C          3.36940        1.68134       -1.94113
H          3.39156        3.51266       -3.09903
H          4.86038        2.56234       -3.16733
N          2.15697        2.03747       -1.08171
H          4.04900        1.10309       -1.30597
H          3.01350        1.02825       -2.74168
H          1.99969        4.15601       -1.06790
H          1.73575        3.38202        0.50088
C          0.93858        2.14670       -1.93991
H          0.09471        2.46220       -1.31775
H          0.72361        1.17985       -2.39921
H          1.12111        2.88948       -2.72138
C          1.94254        0.97268       -0.01166
C          1.76028       -0.45857       -0.50896
H          1.06816        1.30386        0.56242
H          2.81680        1.03243        0.64506
C          1.72351       -1.44392        0.67190
H          2.59083       -0.74814       -1.16955
H          0.83541       -0.54598       -1.09335
C          1.72230       -2.91288        0.22955
H          2.60253       -1.26148        1.31133
H          0.83815       -1.25108        1.30137
C          0.43928       -3.37378       -0.47027
H          2.59176       -3.09097       -0.42675
H          1.88412       -3.53610        1.12176
C          0.43676       -4.86909       -0.79956
H          0.28438       -2.80192       -1.40039
H         -0.42199       -3.14165        0.17854
H          1.26594       -5.13041       -1.47461
H         -0.49867       -5.16491       -1.29237
H          0.54231       -5.47668        0.11170
