33
HMPY+1.gamout	Energy:    -523.1601218
C         -3.15141        2.00871       -0.00665
C         -2.03124        1.00300       -0.01217
H         -2.82909        2.96239       -0.44278
H         -3.48178        2.21013        1.02484
H         -4.02243        1.64712       -0.56901
C         -0.67576        1.37551        0.01337
C          0.32075        0.40359        0.03133
H         -0.40713        2.43414        0.02047
C         -2.30437       -0.36091       -0.01811
C         -0.02870       -0.93837        0.02513
H          1.37569        0.66543        0.05208
N         -1.32555       -1.29577        0.00100
H         -3.32462       -0.74146       -0.03745
H          0.70825       -1.73521        0.04023
C         -1.75068       -2.73249       -0.00738
C         -0.63711       -3.76642        0.01748
H         -2.36521       -2.85919       -0.90854
H         -2.40548       -2.85937        0.86484
C         -1.24006       -5.17828       -0.01018
H         -0.02169       -3.65451        0.92473
H          0.02679       -3.64433       -0.85371
C         -0.19057       -6.29162        0.02123
H         -1.85880       -5.29335       -0.91583
H         -1.92141       -5.30187        0.84788
C         -0.82644       -7.68341       -0.03788
H          0.42027       -6.20079        0.93582
H          0.50472       -6.16753       -0.82672
C          0.18879       -8.82595       -0.00369
H         -1.43611       -7.75771       -0.95405
H         -1.53003       -7.79389        0.80435
H          0.88988       -8.76318       -0.84967
H         -0.31386       -9.80178       -0.05881
H          0.77930       -8.80724        0.92495
