6
HSO4-1.gamout	Energy:    -699.2150735
S          1.40149        0.06595        1.21234
O          0.02088       -0.23174        1.68066
O          1.78231       -0.63919       -0.04643
O          1.34630        1.71448        0.72305
O          2.43459        0.09542        2.27259
H          0.91173        1.68999       -0.14090
