14
HYDROQUINONE.gamout	Energy:    -382.2265814
O         -0.23248        2.86411        0.19403
C          1.12008        2.64733        0.16135
C          2.05570        3.68733        0.09414
C          1.56722        1.32300        0.19750
C          3.42368        3.40845        0.06339
C          2.93519        1.04413        0.16670
C          3.87082        2.08412        0.09954
O          5.22339        1.86736        0.06686
H         -0.42727        3.80733        0.16457
H          1.71717        4.72633        0.06534
H          0.83493        0.51674        0.24982
H          4.15598        4.21471        0.01106
H          3.27375        0.00513        0.19549
H          5.41821        0.92414        0.09635
