4
HYDROGEN_PEROXIDE.gamout	Energy:    -151.3783808
O          0.88285       -0.08129        0.06809
O          2.33365       -0.07751       -0.00449
H          0.67110       -0.03242       -0.87518
H          2.54541       -0.12638        0.93878
