3
HYDROGEN_SULFIDE.gamout	Energy:    -399.2236193
S          0.15703        0.50347        0.00000
H         -0.91906       -0.31637        0.00000
H          1.02520       -0.53403        0.00000
