26
HYDRAZOBENZENE.gamout	Energy:    -573.2393579
N          7.02712        4.10707        0.88261
N          7.35497        2.77458        0.75029
C          6.51584        1.88094        0.07174
C          7.50091        5.05286       -0.03828
C          6.66356        0.49883        0.29806
C          5.55369        2.32295       -0.85349
C          6.96042        6.35250       -0.01607
C          8.52228        4.75200       -0.95432
C          5.86732       -0.41648       -0.38764
C          4.75957        1.39312       -1.53018
C          7.43987        7.32855       -0.88955
C          8.99434        5.74076       -1.82071
C          4.90646        0.02173       -1.30696
C          8.46195        7.03325       -1.79858
H          6.11153        4.29406        1.28260
H          7.86178        2.39825        1.54232
H          7.40748        0.14760        1.01735
H          5.43747        3.38786       -1.05127
H          6.16737        6.59552        0.69538
H          8.93385        3.74403       -0.97993
H          5.99557       -1.48385       -0.19706
H          4.01866        1.75243       -2.24706
H          7.00952        8.33146       -0.85679
H          9.79055        5.49161       -2.52516
H          4.28231       -0.69679       -1.83956
H          8.83654        7.79906       -2.47900
