1
I-1.gamout	Energy:   -2001.4379314
I         -6.43570        2.18110        0.00000
