5
IODOMETHANE.gamout	Energy:    -337.5515889
I         -0.23670        0.00000        0.00002
C          1.93220       -0.00001       -0.00029
H          2.25900        0.00001        1.04311
H          2.26258       -0.90327       -0.52075
H          2.26247        0.90329       -0.52076
