5
IODOMETHANE.gamout	Energy:    -337.5515953
I         -0.23706       -0.00000        0.00001
C          1.93486        0.00000       -0.00028
H          2.26346       -0.00000        1.04299
H          2.26680       -0.90318       -0.52072
H          2.26680        0.90318       -0.52072
