8
IODOETHANE.gamout	Energy:    -376.8129375
C          0.19191        0.09988        0.02581
C          1.70422        0.19204        0.02577
I          2.42100        2.27118        0.02580
H         -0.10197       -0.96367        0.02533
H         -0.24443        0.57129       -0.86526
H         -0.24432        0.57048        0.91736
H          2.15665       -0.24983       -0.86824
H          2.15668       -0.24983        0.91977
