8
IODOETHANE.gamout	Energy:    -376.8129293
C          0.19425        0.10290        0.02581
C          1.70606        0.19540        0.02576
I          2.42049        2.27041        0.02580
H         -0.09881       -0.96042        0.02536
H         -0.24187        0.57443       -0.86524
H         -0.24175        0.57366        0.91733
H          2.15957       -0.24415       -0.86823
H          2.15960       -0.24405        0.91977
