26
ISOBUTYL_ISOBUTYRATE.gamout	Energy:    -464.3625020
O          2.75565        1.13959        0.03127
C          3.93158        0.57356       -0.29724
C          5.11624        1.45620        0.07271
O          4.01633       -0.51042       -0.82834
C          1.55847        0.39530       -0.25986
C          5.09147        2.77524       -0.71877
C          5.18406        1.69956        1.58933
C          0.34812        1.20926        0.18678
C          0.23515        2.53401       -0.57660
C         -0.92164        0.35928        0.04001
H          5.99536        0.87349       -0.23468
H          1.52260        0.18352       -1.33946
H          1.61079       -0.56956        0.26396
H          5.99501        3.36108       -0.49772
H          5.06136        2.59321       -1.80212
H          4.21672        3.38035       -0.44419
H          6.08767        2.27557        1.83492
H          5.22459        0.75327        2.14721
H          4.31142        2.26923        1.93645
H          0.48813        1.43349        1.25795
H         -0.61679        3.12373       -0.20977
H          1.14300        3.14096       -0.46630
H          0.07767        2.34945       -1.65113
H         -1.80280        0.91297        0.39231
H         -0.85362       -0.57195        0.62103
H         -1.09736        0.08828       -1.01291
