12
ISOBUTYRONITRILE.gamout	Energy:    -211.0995514
C          2.07111        2.42507        0.56594
C          2.15618        1.15851        1.31245
C          0.90208        0.95428        2.18321
C          3.46028        1.09158        2.12934
N          2.00140        3.42436       -0.01567
H          2.18300        0.36282        0.54821
H          0.95765       -0.02178        2.68550
H         -0.01340        0.98407        1.57818
H          0.83343        1.73593        2.95273
H          4.34123        1.21664        1.48646
H          3.52931        0.11639        2.63160
H          3.47888        1.87736        2.89766
