23
ISOBUTYL_PROPIONATE.gamout	Energy:    -425.1049737
O          2.81217        1.60680       -0.01115
C          1.55800        1.48420        0.46226
C          0.65304        2.56483       -0.09428
O          1.22154        0.61835        1.23606
C          3.78661        0.64742        0.43826
C         -0.79548        2.44729        0.36702
C          5.12873        0.97128       -0.21173
C          5.63798        2.36173        0.18802
C          6.14543       -0.12582        0.13052
H          1.09016        3.53399        0.19580
H          0.73405        2.52997       -1.19211
H          3.85122        0.69213        1.53647
H          3.44228       -0.36043        0.16681
H         -1.39938        3.25852       -0.06193
H         -1.23282        1.48866        0.05732
H         -0.86659        2.50251        1.46138
H          4.96721        0.96129       -1.30307
H          6.57926        2.59437       -0.32962
H          4.90863        3.14254       -0.06308
H          5.82993        2.40965        1.27182
H          7.10861        0.07246       -0.35997
H          5.79912       -1.11722       -0.19644
H          6.32786       -0.17291        1.21557
