24
ISOBUTYLBENZENE.gamout	Energy:    -388.9797122
C          1.94534        2.10464        2.20013
C          2.70072        2.91899        1.12173
C          4.19073        3.04624        1.35172
C          2.41454        0.64561        2.25375
C          0.43162        2.19164        1.97127
C          4.68474        3.89920        2.35404
C          5.11759        2.32187        0.58664
C          6.05613        4.01832        2.58863
C          6.49227        2.43802        0.81658
C          6.96726        3.28647        1.82005
H          2.16784        2.56701        3.17744
H          2.51772        2.45708        0.13806
H          2.25776        3.92730        1.07854
H          1.89042        0.09574        3.04867
H          2.20491        0.13545        1.29981
H          3.49346        0.57371        2.44601
H          0.15614        1.75026        0.99986
H         -0.11986        1.64780        2.75204
H          0.08102        3.23467        1.97591
H          3.98281        4.48242        2.95471
H          4.75707        1.65930       -0.20299
H          6.41638        4.68972        3.37074
H          7.19448        1.86567        0.20718
H          8.03957        3.38077        1.99994
