24
ISOPROPYL-TERT-BUTYL_ETHER.gamout	Energy:    -351.1380075
O          2.91998        2.47268        1.30765
C          1.80691        3.15357        1.91243
C          3.98819        1.98511        2.12125
C          2.26830        4.44124        2.61622
C          1.06344        2.22776        2.88967
C          0.89960        3.50098        0.72767
C          4.06141        0.46424        1.98320
C          5.28652        2.66602        1.68904
H          3.79671        2.23324        3.17770
H          2.80274        5.08948        1.90871
H          1.40167        4.99419        3.00603
H          2.93284        4.22913        3.46528
H          0.16742        2.72737        3.28498
H          0.74943        1.30957        2.37519
H          1.69129        1.95055        3.74762
H          0.59278        2.58561        0.20394
H          1.43466        4.14202        0.01413
H         -0.00158        4.03049        1.06744
H          4.89892        0.05672        2.56899
H          4.21076        0.19291        0.92813
H          3.13271       -0.00746        2.33077
H          6.14029        2.29176        2.27340
H          5.47738        2.46290        0.62530
H          5.22187        3.75390        1.82433
