21
ISOPROPYL_PROPYL_ETHER.gamout	Energy:    -311.8765199
C         -0.86478       -0.21070       -0.28500
C         -2.09186        0.40243        0.37474
C         -3.40245       -0.18388       -0.15274
O          0.29670        0.38846        0.25039
C          1.53343       -0.00731       -0.33656
C          2.55879        1.05473        0.04122
C          1.95640       -1.40828        0.11194
H         -0.86096       -1.30511       -0.12085
H         -0.89870       -0.05104       -1.38167
H         -2.01733        0.25068        1.46255
H         -2.06932        1.49056        0.20906
H         -3.50787       -0.02171       -1.23673
H         -3.46091       -1.26855        0.02806
H         -4.26830        0.28099        0.33918
H          1.41058       -0.00955       -1.43815
H          2.65926        1.11011        1.13500
H          3.54265        0.81425       -0.38559
H          2.24649        2.04092       -0.32718
H          2.09844       -1.43106        1.20243
H          1.20937       -2.16720       -0.15772
H          2.90516       -1.69298       -0.36696
