18
ISOPHTHALIC_ACID.gamout	Energy:    -608.6828303
O          0.98089        3.46064        0.13655
C          1.62571        4.64852        0.11267
O          1.03313        5.70382        0.11698
C          3.11014        4.51130        0.08118
C          3.73732        3.25754        0.07731
C          3.88563        5.68179        0.05509
C          5.13628        3.17758        0.04744
C          5.27826        5.60039        0.02523
C          5.85005        1.86831        0.04245
C          5.90411        4.35321        0.02139
O          5.01466        0.80573        0.06984
O          7.05337        1.74192        0.01672
H          0.02974        3.64782        0.15580
H          3.14008        2.34977        0.09758
H          3.37658        6.64563        0.05863
H          5.87779        6.51131        0.00492
H          6.99052        4.26742       -0.00159
H          5.56273        0.00595        0.06429
