16
ISOPHTHALOYL_CHLORIDE.gamout	Energy:   -1377.1852624
Cl         6.53495        4.58832       -1.30717
C          7.26987        2.96818       -0.91098
O          8.45293        2.86305       -0.88131
C          6.29004        1.87732       -0.64918
C          6.82448        0.61805       -0.33957
C          4.89583        2.04719       -0.69684
C          5.97483       -0.46678       -0.07817
C          4.05194        0.96712       -0.43712
C          6.63235       -1.76441        0.24182
C          4.58223       -0.28579       -0.12872
Cl         5.49193       -3.14559        0.58050
O          7.80349       -1.95787        0.29134
H          7.90457        0.48197       -0.30182
H          4.47982        3.02350       -0.93684
H          2.97094        1.10296       -0.47519
H          3.92216       -1.12665        0.07370
