15
ISOPROPENYL_ACETATE.gamout	Energy:    -345.3609799
C          0.65546        1.11537        2.43403
C          1.96323        1.86273        2.42924
O          3.00301        1.00981        2.22792
O          2.09683        3.05022        2.58550
C          4.31331        1.50904        2.13505
C          5.19058        1.12449        3.06184
C          4.59430        2.33702        0.91978
H         -0.16314        1.81458        2.63040
H          0.50515        0.62168        1.46323
H          0.67527        0.32913        3.20157
H          4.88647        0.50335        3.90387
H          6.23418        1.42649        2.98827
H          4.01711        3.27198        0.94281
H          5.66211        2.58065        0.86546
H          4.31033        1.78625        0.00915
