20
ISOPENTYL_FORMATE.gamout	Energy:    -385.8334153
C          5.53877        2.31418       11.10219
O          5.01130        2.69686       12.11497
O          5.02152        2.38884        9.87462
H          6.53933        1.84215       11.05753
C          3.70876        2.98525        9.74477
C          3.32182        2.93689        8.27705
H          3.75580        4.00867       10.13995
H          3.00442        2.41886       10.37198
C          1.88916        3.42417        7.98802
H          3.42293        1.89640        7.93151
H          4.04118        3.53331        7.69175
C          1.68491        4.90825        8.32785
H          1.84937        5.11934        9.39380
H          0.65981        5.22297        8.08618
H          2.37531        5.54082        7.74738
C          1.52187        3.13942        6.52571
H          1.20362        2.83518        8.62377
H          1.62015        2.06947        6.29059
H          2.18041        3.69617        5.84023
H          0.48601        3.43844        6.30940
