24
KETO_D_FRUCTOSE.gamout	Energy:    -686.3768122
C          0.05810       -0.04912       -0.08774
C          1.45356        0.36079       -0.53807
H         -0.07235        0.19143        0.98220
O         -0.85537        0.69799       -0.88722
H         -0.06606       -1.13360       -0.23158
C          2.55536       -0.30097        0.29849
O          1.61017        1.77696       -0.44918
H          1.59344        0.03486       -1.58283
O          2.59989       -1.65365       -0.11124
H          2.28758       -0.23569        1.36815
C          3.90612        0.45014        0.13302
H          3.87789        1.30298        0.84067
O          4.17570        0.91527       -1.17072
C          5.07931       -0.39927        0.59985
C          6.43638       -0.16997       -0.02686
H          6.67874        0.90639        0.04162
H          6.34450       -0.38705       -1.10686
O          7.42559       -0.95436        0.57495
H         -1.76386        0.50773       -0.63323
H          6.99168       -1.49647        1.25407
H          3.51850        1.59702       -1.37137
H          0.79374        2.18183       -0.77192
H          3.16504       -2.13795        0.50469
O          4.94947       -1.23558        1.47900
