19
L-ASCORBATE-1.gamout	Energy:    -683.4686796
O          0.10482       -0.99667        0.96210
O         -1.73692       -0.10986       -1.31319
O          0.42272        2.18329       -0.65124
O         -4.05209       -0.58448        0.07249
O          2.85265        0.25081       -1.00124
O          2.02225       -2.12586        0.44241
C         -0.40564        0.31975        0.71483
C         -1.78492        0.30717        0.05001
C          0.63727        1.04285       -0.17425
C         -2.78955       -0.61135        0.73280
C          1.67241        0.12008       -0.29784
C          1.35610       -1.09574        0.36530
H         -0.49868        0.84194        1.68365
H         -2.15584        1.34653        0.09785
H         -2.38412       -1.63600        0.75694
H         -2.95672       -0.27959        1.76789
H         -1.09797        0.45434       -1.77102
H         -3.85674       -0.61637       -0.87409
H          3.30427       -0.60083       -0.90587
