20
L-ASCORBIC_ACID.gamout	Energy:    -683.9925844
C          5.99308        5.29350        4.53048
C          7.10506        4.40851        4.18237
O          4.87304        4.89071        3.83968
O          6.00500        6.22544        5.29585
C          6.65906        3.48768        3.30148
O          8.32638        4.56259        4.73156
C          5.20867        3.78982        2.99173
O          7.32433        2.47995        2.73214
C          4.27331        2.60031        3.23944
O          2.13959        1.63964        3.03066
C          2.81710        2.88448        2.89461
O          4.77740        1.55268        2.41204
H          8.29355        5.32505        5.33029
H          5.09649        4.11397        1.94200
H          6.67538        1.85275        2.36256
H          4.34446        2.30651        4.30120
H          1.21867        1.72164        2.76455
H          2.74986        3.25876        1.85783
H          2.41383        3.64775        3.57808
H          4.11144        0.85298        2.36547
