22
LEUCINE.gamout	Energy:    -441.1373663
C          1.30776        1.77100        0.74841
C          2.80511        1.39331        0.73559
C          3.42840        1.68954       -0.64896
N          3.10854        0.00722        1.13663
C          0.41004        1.21099       -0.37426
O          3.37877        2.77748       -1.16718
O          4.02879        0.63639       -1.20791
C          0.29623       -0.32147       -0.38255
C         -0.98049        1.85591       -0.28561
H          1.26239        2.86738        0.70067
H          0.89485        1.48586        1.73126
H          3.73863       -0.04111        1.93031
H          2.28107       -0.53702        1.35483
H          0.85642        1.51849       -1.33437
H          3.92405       -0.09369       -0.54943
H         -0.04935       -0.70187        0.59341
H          1.24817       -0.81003       -0.63104
H         -0.43497       -0.64895       -1.13485
H         -0.91870        2.95179       -0.34776
H         -1.47443        1.59795        0.66516
H         -1.62698        1.50717       -1.10328
H          3.31157        2.08748        1.42305
