14
M-CHLOROANILINE.gamout	Energy:    -746.6506626
C          6.32898        1.85871       -0.68518
C          6.85594        0.59825       -0.34338
C          4.92948        2.02055       -0.72069
N          7.17600        2.93033       -0.93146
C          5.99189       -0.45623       -0.05668
C          4.60420       -0.30928       -0.09266
Cl         6.68022       -2.02108        0.36463
C          4.08980        0.94736       -0.42849
H          7.93502        0.44658       -0.30009
H          4.50652        2.99409       -0.97672
H          6.79507        3.72320       -1.42869
H          8.13901        2.72758       -1.16054
H          3.94949       -1.14861        0.13620
H          3.00810        1.08925       -0.46203
