16
M-CRESOL.gamout	Energy:    -346.3476191
C          0.07637       -0.89235        0.15752
C         -1.16760       -0.25930        0.02542
C         -1.20576        1.13794       -0.10429
C         -0.02119        1.87991       -0.10103
C          1.21621        1.24753        0.03071
C          1.25954       -0.14772        0.16056
O          2.43413       -0.83413        0.29394
C         -2.43544       -1.08054        0.02466
H          0.14246       -1.97687        0.26062
H         -2.16529        1.64724       -0.20801
H         -0.06023        2.96615       -0.20244
H          2.14130        1.82962        0.03308
H          3.18372       -0.22838        0.28353
H         -2.54048       -1.64883        0.96195
H         -3.32399       -0.44566       -0.08680
H         -2.43498       -1.81005       -0.80030
