16
M-DINITROBENZENE.gamout	Energy:    -640.4971213
C          6.31540        1.90268       -0.68179
C          6.83039        0.64804       -0.34715
C          4.92982        2.07254       -0.72924
C          4.07705        1.00331       -0.44604
C          4.63368       -0.23446       -0.11553
C          6.01016       -0.44040       -0.05843
N          3.73357       -1.36863        0.18537
N          8.29662        0.46325       -0.29599
O          8.71619       -0.64437       -0.00012
O          8.99470        1.43286       -0.55333
O          2.53056       -1.16185        0.12614
O          4.24831       -2.43743        0.47356
H          7.00089        2.72037       -0.89824
H          4.51170        3.04540       -0.98875
H          2.99399        1.11000       -0.47631
H          6.42660       -1.41078        0.20079
