19
M-ETHYLPHENOL.gamout	Energy:    -385.6047277
C         -0.71292        0.65228        0.17110
C         -1.12379       -0.68751        0.20728
C          0.64826        0.94026        0.06891
C          1.59666       -0.08588        0.00251
C         -0.17928       -1.71417        0.14030
C          1.19099       -1.42877        0.03712
C          2.17060       -2.58950       -0.03371
C          3.65267       -2.23524       -0.14461
H          1.88471       -3.22295       -0.89032
H          2.01528       -3.22263        0.85613
H          3.86340       -1.65058       -1.05234
H          4.25864       -3.15037       -0.19108
H          3.99642       -1.65084        0.72139
O         -2.43904       -1.04742        0.30771
H         -3.00255       -0.26639        0.34662
H         -0.53266       -2.74663        0.17091
H         -1.45062        1.45713        0.22293
H          0.97475        1.98148        0.04006
H          2.65250        0.16891       -0.07711
