10
MALEATE_DIANION-2.gamout	Energy:    -453.9819061
O          2.98110       -0.11929        0.00000
O         -2.98103       -0.11936        0.00000
O          1.65808        1.70922        0.00000
O         -1.65809        1.70923        0.00000
C          0.67803       -0.52658        0.00000
C         -0.67803       -0.52655        0.00000
C          1.85118        0.47687        0.00000
C         -1.85117        0.47689       -0.00000
H          1.10227       -1.54034       -0.00000
H         -1.10234       -1.54029        0.00000
