18
MANDELATE-1.gamout	Energy:    -534.1719197
O          1.66169       -1.65629        0.70511
O          1.95011        1.84117        0.05230
O          3.00427       -0.02575       -0.69020
C         -0.26737       -0.20107        0.40578
C          1.18308       -0.33135        0.81709
C         -1.03287        0.90705        0.80662
C         -0.87531       -1.17163       -0.40119
C         -2.36091        1.04476        0.40162
C         -2.20683       -1.03937       -0.80291
C         -2.95708        0.06937       -0.40441
C          2.14017        0.61787       -0.03801
H          1.27590        0.01512        1.86258
H         -0.56518        1.67578        1.42135
H         -0.27735       -2.03062       -0.70006
H         -2.93608        1.92050        0.71301
H         -2.66514       -1.80711       -1.43201
H         -3.99602        0.17555       -0.72089
H          2.41934       -1.52408        0.08282
