11
METHYL_CHLOROACETATE.gamout	Energy:    -727.4661576
Cl        -2.10079        0.07159        0.77085
O          1.44503        0.50941       -0.11414
O          0.40757       -1.44080       -0.55307
C         -0.88739        0.60219       -0.45336
C          0.37039       -0.24996       -0.37644
C          2.70694       -0.17298       -0.04374
H         -0.66688        1.65747       -0.26972
H         -1.34572        0.46969       -1.44101
H          2.67865       -0.93462        0.74593
H          3.44907        0.59764        0.18428
H          2.92991       -0.65767       -1.00317
