6
METHYL_MERCAPTAN.gamout	Energy:    -438.4750491
C         -1.93211        0.25884        0.20724
S         -2.70699        1.79173       -0.43248
H         -2.45900       -0.57472       -0.27493
H         -2.05608        0.17159        1.29429
H         -0.86866        0.20519       -0.05860
H         -1.95807        2.67190        0.27132
