14
METHYL_ISOPROPENYL_KETONE.gamout	Energy:    -270.2076376
C         16.93997       19.01020        0.17551
C         18.24839       19.71316       -0.06372
O         16.93534       17.81340        0.40904
C         15.63936       19.79158        0.12571
C         18.29556       21.03128       -0.32407
C         19.47712       18.84682        0.00989
H         15.63272       20.59554        0.87683
H         15.49781       20.25816       -0.86059
H         14.81122       19.10339        0.32390
H         19.24601       21.53922       -0.49739
H         17.40001       21.65010       -0.37515
H         19.42485       18.03249       -0.72801
H         20.38607       19.43486       -0.16978
H         19.55071       18.36239        0.99483
