20
METHYL_4-AMINOBENZOATE.gamout	Energy:    -514.8558637
O         -2.46303       -0.83330       -0.00009
O         -2.32692        1.41210       -0.00040
N          3.87775       -0.27706       -0.00018
C         -0.30582        0.13143       -0.00022
C          2.51132       -0.14407       -0.00019
C          0.52895        1.26320       -0.00040
C          0.29170       -1.14227       -0.00002
C          1.91011        1.13546       -0.00039
C          1.67340       -1.28176       -0.00001
C         -1.77285        0.33093       -0.00024
C         -3.88820       -0.72574       -0.00007
H          0.06602        2.25031       -0.00058
H         -0.34105       -2.02871        0.00015
H          2.54254        2.02575       -0.00056
H          2.12191       -2.27755        0.00017
H          4.31712       -1.18364        0.00000
H          4.48148        0.52942       -0.00035
H         -4.26571       -1.75345        0.00015
H         -4.23360       -0.18805       -0.89325
H         -4.23355       -0.18767        0.89290
