12
METHACRYLIC_ACID.gamout	Energy:    -306.1148488
C          1.98742        1.76522       -0.05028
C          1.23632        0.46215       -0.00273
C         -0.10023        0.36427        0.07956
C          2.08816       -0.76464       -0.05390
O          1.39842       -1.92802       -0.00706
O          3.29722       -0.74100       -0.13094
H          1.29485        2.61509       -0.00866
H          2.69549        1.83977        0.78863
H          2.58781        1.83739       -0.96935
H         -0.59996       -0.60270        0.11102
H         -0.72533        1.25833        0.11692
H          2.04836       -2.64616       -0.04693
