31
METHYL_SINAPATE.gamout	Energy:    -840.7489618
C          1.45997       -0.71067        0.89645
C          0.82656        0.12248        1.95026
O          1.12559       -1.87121        0.78238
O          2.40640       -0.25947        0.03344
C          0.98650        1.41428        2.31496
C          0.27437        2.10389        3.39694
C          2.95169        1.04871       -0.03050
C          0.57637        3.46353        3.63215
C         -0.68611        1.47896        4.20325
C         -0.08073        4.14654        4.64915
C         -1.04808        3.51484        5.46023
O          0.11712        5.46088        4.97951
C         -1.35333        2.15796        5.23098
O         -1.65499        4.23973        6.43980
O         -2.25236        1.41254        5.92056
C         -3.03602        1.91177        6.99984
C          1.06202        6.22522        4.25170
H          0.10632       -0.49051        2.49392
H          1.69783        2.04708        1.79027
H          3.68078        1.02115       -0.84796
H          3.47398        1.31770        0.89938
H          2.18208        1.79755       -0.26939
H          1.31970        3.96586        3.01603
H         -0.95176        0.43330        4.06018
H         -1.28799        5.13565        6.40765
H         -3.64541        1.06220        7.32662
H         -3.69031        2.73224        6.67666
H         -2.40592        2.25546        7.83062
H          1.04681        7.23012        4.68507
H          0.78737        6.28197        3.18635
H          2.07319        5.79919        4.34860
