19
METHYL_SEC-BUTYL_KETONE.gamout	Energy:    -310.6850954
C          0.25741       -0.33122        0.25196
C          0.44035       -1.58911       -0.62605
C          1.33517        0.73590        0.01066
C          2.75227        0.29757        0.38962
C         -1.14901        0.22460        0.02025
O         -1.34110        1.23266       -0.62866
C         -2.32125       -0.53982        0.61809
H          0.30029       -0.65536        1.30839
H          1.40016       -2.07586       -0.40903
H         -0.35171       -2.33050       -0.45162
H          0.42573       -1.31708       -1.69182
H          1.30121        1.03976       -1.04635
H          1.06686        1.63551        0.58449
H          2.80607       -0.02236        1.44233
H          3.10956       -0.53548       -0.23285
H          3.46044        1.12809        0.25909
H         -2.02968       -1.48006        1.10258
H         -2.80735        0.10717        1.36390
H         -3.06210       -0.73868       -0.16837
