16
METHOXYETHYLSULFATE-1.gamout	Energy:    -892.1005956
C         -1.89667       -4.19260       -0.34512
O         -0.84619       -3.35365        0.03668
H         -1.64606       -5.21140       -0.01815
H         -2.04320       -4.19683       -1.44599
H         -2.85473       -3.89282        0.12363
C         -1.05401       -1.99286       -0.29624
C          0.07577       -1.12878        0.22365
H         -1.10899       -1.88757       -1.39977
H         -2.01195       -1.63917        0.12961
O         -0.03331       -0.99191        1.62315
H          0.00564       -0.13757       -0.26053
H          1.04556       -1.57890       -0.05285
S          1.01277        0.19198        2.31547
O          2.37989       -0.27439        1.95217
O          0.64772        0.07843        3.74490
O          0.60836        1.46226        1.64839
