18
METHYL_SEC-BUTYL_ETHER.gamout	Energy:    -272.6129425
C         -0.03380       -0.42689        0.27813
C         -0.66398       -1.80605        0.07667
C          1.42000       -0.38222       -0.19416
C          2.13590        0.93161        0.11890
O         -0.73864        0.58807       -0.43238
C         -1.95536        1.00429        0.13839
H         -0.06225       -0.17638        1.35868
H         -0.62039       -2.09651       -0.98317
H         -0.12381       -2.56120        0.66682
H         -1.71418       -1.82581        0.39792
H          1.95797       -1.22408        0.26958
H          1.42571       -0.56454       -1.28104
H          1.62704        1.77947       -0.35877
H          2.16402        1.12014        1.20367
H          3.17405        0.90989       -0.24242
H         -2.71917        0.20658        0.13648
H         -1.81317        1.34977        1.17958
H         -2.32834        1.84267       -0.46382
