18
METHYL_TERT-BUTYL_ETHER.gamout	Energy:    -272.6134153
O          1.85838        0.53468        1.00732
C          2.76172        1.41946        1.69751
C          2.76201        1.14531        3.20970
C          4.13011        1.08245        1.09786
C          2.40174        2.88502        1.40664
C          0.51495        0.47889        1.42648
H          1.82120        1.45395        3.68648
H          2.91852        0.07517        3.40560
H          3.57427        1.70508        3.69412
H          4.40582        0.04619        1.33572
H          4.09702        1.18732        0.00512
H          4.90588        1.75334        1.49255
H          1.40722        3.14869        1.79236
H          2.41862        3.07470        0.32469
H          3.12621        3.55846        1.88740
H          0.02357        1.46717        1.41151
H         -0.00690       -0.17612        0.71740
H          0.40775        0.04846        2.43698
