5
METHANE.gamout	Energy:     -40.4548403
C          1.05820        0.93531        0.81030
H          1.41825        1.57291       -0.00852
H          1.20804        1.45062        1.76877
H         -0.01114        0.72718        0.66954
H          1.61791       -0.00998        0.81140
