19
METHYL_N-BUTYL_KETONE.gamout	Energy:    -310.6875621
O         -3.62400        1.60289        0.61585
C         -5.61446       -0.39289        0.33729
C         -6.50738       -1.62086        0.13072
C         -4.13612       -0.67862        0.09071
C         -7.99052       -1.33610        0.37687
C         -3.21066        0.51027        0.28555
C         -1.72624        0.28144        0.04912
H         -5.73924       -0.00523        1.36044
H         -5.93717        0.42224       -0.32937
H         -6.17371       -2.43146        0.80126
H         -6.37158       -2.00228       -0.89587
H         -3.96900       -1.06086       -0.93341
H         -3.77010       -1.48879        0.74870
H         -8.60239       -2.23630        0.22181
H         -8.36170       -0.55479       -0.30402
H         -8.15969       -0.98630        1.40676
H         -1.38169        0.97314       -0.73337
H         -1.17739        0.53537        0.96766
H         -1.48906       -0.74935       -0.24476
