12
METHYL_ETHYL_ETHER.gamout	Energy:    -194.0906203
O          0.96888        1.68718        0.78523
C          0.82633        3.07055        1.00934
C          1.97169        1.05051        1.55773
C          3.39312        1.32993        1.07507
H          1.71313        3.64363        0.68422
H         -0.03934        3.40788        0.42518
H          0.64117        3.28542        2.07890
H          1.86331        1.33820        2.62187
H          1.75777       -0.02543        1.48388
H          4.11141        0.74193        1.66638
H          3.49846        1.04771        0.01784
H          3.66322        2.39038        1.18048
