16
METHYL_PHENYL_SULFIDE.gamout	Energy:    -669.2199001
S          0.93056        2.27328       -2.00868
C         -0.07233        1.38394       -0.80935
C         -0.63520        2.06244        0.28245
C         -0.26342       -0.00040       -0.93568
C         -1.39530        1.36565        1.22642
C         -1.02425       -0.69350        0.01048
C         -1.59253       -0.01219        1.09139
C         -0.35555        2.75854       -3.22227
H         -0.46951        3.13542        0.38858
H          0.19143       -0.52874       -1.77477
H         -1.83005        1.90036        2.07322
H         -1.16819       -1.77061       -0.09473
H         -2.18291       -0.55522        1.83157
H          0.15820        3.32385       -4.01128
H         -1.11378        3.39946       -2.75291
H         -0.83516        1.87436       -3.66269
