7
METHYLAMINE.gamout	Energy:     -95.7335707
C          0.61411        1.08934        0.85749
N          1.90124        1.75447        1.03042
H          0.08503        1.53668        0.00362
H          0.66916       -0.00364        0.68736
H         -0.00695        1.26048        1.74869
H          2.41320        1.38972        1.82905
H          2.49744        1.64775        0.21421
