22
METHYL_AMYL_KETONE.gamout	Energy:    -349.9416803
O         -2.96067        2.68402       -0.00000
C          1.19059        0.04153       -0.00000
C         -0.34191        0.01874       -0.00000
C          1.82221       -1.35430       -0.00000
C         -0.95274        1.42139        0.00000
C          3.35191       -1.33136        0.00000
C         -2.47498        1.57025        0.00000
C         -3.38859        0.35396        0.00000
H          1.54540        0.60284        0.88175
H          1.54540        0.60284       -0.88175
H         -0.69063       -0.54298       -0.88245
H         -0.69063       -0.54298        0.88245
H          1.46314       -1.91275       -0.88101
H          1.46314       -1.91275        0.88101
H         -0.60122        1.99570       -0.87381
H         -0.60122        1.99570        0.87381
H          3.76782       -2.34913        0.00000
H          3.74121       -0.81053       -0.88846
H          3.74121       -0.81053        0.88846
H         -4.04201        0.41551       -0.88255
H         -4.04201        0.41551        0.88255
H         -2.86755       -0.60902        0.00000
