16
METHYLGLUTARONITRILE.gamout	Energy:    -342.4841474
C         52.99684       30.01977       -0.03208
C         51.68878       29.19734       -0.03533
C         50.85181       29.54103       -1.19722
C         51.96543       27.68275        0.00869
C         52.75878       31.54105       -0.01895
N         50.20614       29.82101       -2.11707
C         54.00880       32.30132        0.04359
N         55.00678       32.88562        0.09635
H         53.57254       29.73021        0.85809
H         53.60079       29.74787       -0.90942
H         51.10559       29.47335        0.85987
H         51.02890       27.11185        0.03331
H         52.54530       27.43850        0.90906
H         52.53958       27.36608       -0.87216
H         52.20680       31.85314       -0.91902
H         52.14113       31.82564        0.84809
