10
METHACRYLONITRILE.gamout	Energy:    -209.8754357
C         49.01264       34.01570        0.00010
C         48.24349       32.71618        0.00000
C         46.90252       32.62577       -0.00001
C         49.03327       31.50850        0.00000
N         49.70117       30.55940       -0.00000
H         48.32257       34.86883        0.00001
H         49.66223       34.08546        0.88588
H         49.66246       34.08546       -0.88550
H         46.39501       31.66114       -0.00008
H         46.28408       33.52464       -0.00007
