13
METHYL_ETHYL_KETONE.gamout	Energy:    -232.1687258
C          1.78600        1.41514        2.83657
C          0.83381        2.60808        2.64041
C          2.38350        0.95338        1.51489
C          3.69263        1.58331        1.08576
O          1.81730        0.12987        0.82496
H          2.58754        1.69448        3.53744
H          1.23490        0.56564        3.26293
H          0.01610        2.34270        1.95631
H          0.39545        2.90684        3.60268
H          1.35984        3.48018        2.22486
H          3.99820        1.19433        0.10817
H          3.59160        2.67919        1.03770
H          4.47341        1.37279        1.83360
