16
METHYL_ISOPROPYL_KETONE.gamout	Energy:    -271.4283677
C          1.97441        2.19384        2.55274
C          3.23982        2.09372        1.69320
C          4.48783        1.87057        2.55382
C          3.05043        0.96504        0.65919
C          0.90372        3.15965        2.08776
O          1.83327        1.51675        3.55048
H          3.34614        3.04297        1.14103
H          4.40292        0.93474        3.12213
H          4.62890        2.68999        3.27250
H          5.38299        1.81303        1.91817
H          2.16077        1.12163        0.03187
H          2.94518       -0.00433        1.16729
H          3.92473        0.91171       -0.00560
H          0.65542        2.98439        1.02967
H          1.29053        4.18930        2.15420
H          0.00630        3.06115        2.70837
