21
METHYL_DIETHANOLAMINE.gamout	Energy:    -403.0216059
C         16.91732       29.99213       -0.18081
C         15.70603       30.85989        0.15090
N         18.15387       30.76373       -0.24345
O         14.56312       30.01282        0.16801
C         19.32551       29.96627        0.08640
C         18.31936       31.50975       -1.48795
C         19.07709       32.81911       -1.28674
O         19.20081       33.44265       -2.55997
H         17.01353       29.23563        0.61013
H         16.71651       29.43851       -1.12216
H         15.58683       31.65945       -0.60100
H         15.86794       31.33965        1.13169
H         13.77648       30.52685        0.37532
H         20.22764       30.59164        0.08340
H         19.21904       29.53746        1.09217
H         19.48951       29.13367       -0.63235
H         17.33368       31.75841       -1.90278
H         18.83942       30.90761       -2.26229
H         20.07208       32.62776       -0.84836
H         18.51388       33.45423       -0.58117
H         19.67157       34.27754       -2.47380
