11
MONOETHANOLAMINE.gamout	Energy:    -210.1293475
C         -0.95646        0.02813        1.39558
C         -0.85096       -1.42143        1.85323
N          0.54832       -1.84173        1.87287
H         -1.39393       -2.05374        1.13539
H         -1.36910       -1.52133        2.82579
H          1.06333       -1.41284        2.63796
H          0.63962       -2.84787        1.97158
O         -2.32474        0.40854        1.44691
H         -0.54746        0.11588        0.37439
H         -0.34444        0.66893        2.05900
H         -2.42637        1.31583        1.14261
