21
N,N-DIETHYLACETAMIDE.gamout	Energy:    -365.9867746
C          0.38011       -1.47870        0.65145
C          1.06590       -2.20327       -0.51181
N          0.10249       -0.06453        0.41555
C         -1.11105        0.42170        0.00220
C         -2.25436       -0.56353       -0.19330
O         -1.27947        1.62072       -0.19932
C          1.18668        0.90411        0.61304
C          1.86896        1.37296       -0.67510
H         -0.55654       -1.98916        0.90209
H          1.01336       -1.54883        1.54955
H          0.45844       -2.14851       -1.42615
H          2.05043       -1.76868       -0.73122
H          1.21501       -3.26381       -0.25970
H         -2.55770       -1.01867        0.76175
H         -3.10254       -0.00195       -0.59636
H         -1.99386       -1.37550       -0.88691
H          0.76500        1.77614        1.13006
H          1.92157        0.43739        1.28432
H          2.34232        0.53971       -1.21252
H          1.13905        1.85321       -1.33868
H          2.65049        2.10928       -0.43405
