26
N,N-BIS(2-HYDROXYETHYL)ETHYLENEDIAMINE.gamout	Energy:    -497.5633088
O         -2.90241       -1.99353       -1.21681
O         -0.19645        3.53652        0.37698
N          0.17649       -0.06661       -0.55808
N          3.48539       -1.83892       -0.27640
C          1.33205       -0.87110       -0.94314
C         -1.06728       -0.47758       -1.20276
C          0.40977        1.37287       -0.60919
C          2.35078       -1.04257        0.18655
C         -1.73635       -1.64523       -0.48204
C         -0.35174        2.12829        0.48478
H          1.83804       -0.44169       -1.83593
H          0.99438       -1.87213       -1.24072
H         -0.91320       -0.75198       -2.26588
H         -1.77202        0.36444       -1.20234
H          0.14220        1.80386       -1.59585
H          1.48490        1.56236       -0.47072
H          1.85991       -1.57790        1.01252
H          2.63906       -0.04948        0.58312
H         -1.98377       -1.33599        0.54836
H         -1.04247       -2.50196       -0.41727
H         -0.03438        1.75716        1.47415
H         -1.43099        1.94287        0.39731
H          4.12821       -2.05968        0.47817
H          4.01703       -1.35409       -0.99564
H         -3.34946       -2.73436       -0.79513
H          0.70472        3.78629        0.60956
