22
N,N-DIMETHYLBUTYLAMINE.gamout	Energy:    -292.0127721
N          0.18608        1.97728        0.25511
C          0.45091       -0.49511       -0.09805
C         -0.47663        0.72176       -0.08062
C         -0.30370       -1.80771       -0.33592
C          0.60923       -3.03557       -0.35981
C         -0.76493        3.02468        0.57974
C          1.15079        2.41215       -0.73892
H          0.98852       -0.53956        0.86301
H          1.21551       -0.38026       -0.88228
H         -1.00356        0.79343       -1.06178
H         -1.25632        0.55275        0.67789
H         -0.85435       -1.74494       -1.28952
H         -1.06644       -1.93572        0.45033
H          0.03497       -3.95849       -0.52645
H          1.35838       -2.95870       -1.16290
H          1.15191       -3.14651        0.59164
H         -1.41802        2.69798        1.40129
H         -1.41264        3.30734       -0.28125
H         -0.23139        3.92726        0.90961
H          0.68897        2.59229       -1.73650
H          1.62428        3.34850       -0.41225
H          1.94683        1.66743       -0.86124
