30
N-ACETYL-D-GLUCOSAMINE.gamout	Energy:    -818.9896435
C          2.13202        1.11727       -0.10532
C          3.47801        1.84497       -0.40377
C          2.23818        0.27677        1.16739
N          0.98554        1.99509       -0.10049
C          4.03499        2.64675        0.79717
O          4.45056        0.91848       -0.85268
C          4.94563        3.81246        0.38630
O          2.92464        3.10389        1.56560
C          6.24200        3.38275       -0.31042
O          4.21799        4.71215       -0.42306
O          6.99785        4.53362       -0.67922
O          3.22417       -0.37070        1.44316
C         -0.19011        1.85958       -0.79564
O         -1.07899        2.69025       -0.68330
C         -0.34378        0.64471       -1.69704
H          2.02249        0.39827       -0.92912
H          3.28698        2.53347       -1.23540
H          1.34444        0.28566        1.83398
H          1.05263        2.82060        0.48537
H          4.63973        1.95355        1.40849
H          4.52897        0.22252       -0.18103
H          5.23592        4.32237        1.33300
H          3.18406        3.82150        2.15356
H          6.01622        2.85359       -1.24261
H          6.82355        2.70370        0.33360
H          4.85342        5.27938       -0.88158
H          7.43948        4.90298        0.09457
H          0.42628        0.62087       -2.48277
H         -1.33000        0.70078       -2.16713
H         -0.27172       -0.29427       -1.12759
