14
N-BUTYRIC_ACID.gamout	Energy:    -307.3298448
C          1.96815        0.93192        0.78951
C          2.97326       -0.00846        1.43817
C          0.64038        1.02891        1.54119
O          4.16796       -0.11530        0.79705
O          2.77992       -0.63660        2.44339
C         -0.35253        1.97914        0.87011
H          2.43822        1.92822        0.70516
H          1.80172        0.59021       -0.24789
H          0.20744        0.02134        1.62516
H          0.84206        1.35416        2.57232
H          4.19754        0.43853        0.00540
H         -0.59503        1.65170       -0.15309
H         -1.29338        2.02632        1.43569
H          0.04962        3.00236        0.80576
