20
N-BUTYL_ACETATE.gamout	Energy:    -385.8450985
O          4.04951       -0.13751       -1.74223
C          3.37217        0.14200       -2.98173
C          4.75887        0.86495       -1.19146
C          2.63932       -1.11394       -3.41963
C          5.41901        0.42564        0.08881
O          4.84063        1.96783       -1.68051
C          1.88433       -0.91567       -4.73894
C          1.13600       -2.16750       -5.20185
H          4.11679        0.46079       -3.72636
H          2.68064        0.98370       -2.82858
H          3.36370       -1.93751       -3.52465
H          1.93518       -1.41318       -2.62624
H          6.08215       -0.42945       -0.10418
H          5.99156        1.25678        0.51152
H          4.65738        0.08990        0.80699
H          1.17197       -0.08120       -4.62922
H          2.59695       -0.60466       -5.52140
H          0.38659       -2.48178       -4.45887
H          0.60943       -1.98835       -6.15013
H          1.82625       -3.01098       -5.35599
