20
N-CAPROIC_ACID.gamout	Energy:    -385.8473006
C         -1.96084        5.27752        1.75976
C         -1.05480        4.13680        1.29401
C          0.39261        4.26636        1.78107
C          1.29231        3.12089        1.30900
C          2.73416        3.25206        1.79866
C          3.64324        2.12214        1.33712
O          4.93438        2.20472        1.75653
O          3.29877        1.19908        0.65051
H         -2.00277        5.32893        2.85886
H         -1.59500        6.25003        1.39541
H         -2.98884        5.14815        1.39213
H         -1.46455        3.17384        1.64187
H         -1.05927        4.08686        0.19239
H          0.39977        4.31321        2.88447
H          0.80719        5.22912        1.43299
H          1.29261        3.07021        0.20964
H          0.88766        2.15670        1.65240
H          3.17575        4.20501        1.45602
H          2.76599        3.28682        2.90230
H          5.08250        2.99051        2.29965
