32
N-DECANE.gamout	Energy:    -393.7820818
C          5.26428        1.27208        1.07432
C          6.31071        1.88781        2.00513
C          7.70426        1.27485        1.85110
C          3.87835        1.90533        1.21513
C          8.74737        1.86349        2.80422
C          2.81127        1.27385        0.31752
C         10.14819        1.27021        2.62749
C          1.43530        1.93502        0.44282
C         11.18183        1.84768        3.59562
C          0.36557        1.29209       -0.44114
H          5.19339        0.18856        1.27467
H          5.60805        1.36419        0.02903
H          5.97506        1.77554        3.05101
H          6.36546        2.97506        1.81994
H          8.04673        1.40748        0.80996
H          7.63964        0.18430        2.01129
H          3.94808        2.98424        0.99162
H          3.55523        1.83463        2.26841
H          8.41484        1.70935        3.84583
H          8.79525        2.95738        2.66045
H          3.14453        1.32137       -0.73415
H          2.72246        0.19995        0.55857
H         10.48067        1.43792        1.58893
H         10.09501        0.17539        2.75455
H          1.11445        1.89814        1.49786
H          1.52759        3.00536        0.19191
H         12.17723        1.40807        3.43423
H         11.27550        2.93835        3.47442
H         10.89853        1.65546        4.64232
H          0.21841        0.23209       -0.18147
H         -0.60508        1.79898       -0.33557
H          0.64960        1.33449       -1.50442
