17
N-FORMYLMORPHOLINE.gamout	Energy:    -400.6517219
C          1.83560        1.93953       -0.47297
C          0.45655        2.19380        0.13551
N          2.28086        0.59252       -0.13424
O         -0.46288        1.16887       -0.21388
C         -0.03265       -0.10987        0.21726
C          1.32044       -0.46823       -0.39972
C          3.52683        0.35917        0.36103
O          4.37608        1.20752        0.56867
H          2.57813        2.64910       -0.08921
H          1.78313        2.04711       -1.57021
H          0.03779        3.13504       -0.24273
H          0.54218        2.25971        1.23653
H         -0.80239       -0.82746       -0.09566
H          0.04501       -0.13032        1.32140
H          1.69757       -1.41169        0.01887
H          1.19627       -0.59901       -1.48925
H          3.70123       -0.72023        0.57142
