20
N-HEXANOIC_ACID.gamout	Energy:    -385.8473058
C          0.89129        4.43665        3.51859
C          2.38973        4.16129        3.38483
C          2.71325        2.93630        2.52269
C          4.21558        2.66970        2.39488
C          4.53538        1.44805        1.53441
C          6.02468        1.16773        1.39720
O          6.34610        0.08638        0.63724
O          6.89815        1.81984        1.90134
H          0.70097        5.32147        4.14274
H          0.43016        4.61604        2.53487
H          0.36922        3.58357        3.97902
H          2.89093        5.04433        2.95452
H          2.83072        4.02146        4.38600
H          2.27486        3.07465        1.51833
H          2.21498        2.04932        2.95258
H          4.71937        3.54875        1.96513
H          4.65968        2.52831        3.39198
H          4.05612        0.54390        1.95055
H          4.11713        1.56824        0.51901
H          5.55789       -0.35250        0.29008
