12
N-METHYLACETAMIDE.gamout	Energy:    -248.2192110
C          1.97333        0.11619        0.00000
N          0.63834        0.68627       -0.00002
C         -0.47265       -0.10381        0.00000
C         -1.80657        0.62214        0.00001
O         -0.39473       -1.32462       -0.00000
H          2.71024        0.92789        0.00007
H          2.13112       -0.51522        0.88701
H          2.13131       -0.51517       -0.88702
H          0.53045        1.68913        0.00001
H         -1.70954        1.71656       -0.00004
H         -2.37775        0.31184       -0.88574
H         -2.37779        0.31196        0.88578
