29
N-NONANOIC_ACID.gamout	Energy:    -503.6304432
C          0.54723        0.73729        0.80370
C          1.60124        1.84335        0.87434
C          3.02940        1.31929        1.05796
C          4.08475        2.42572        1.13579
C          5.51297        1.90435        1.31978
C          6.56480        3.01404        1.40331
O         11.05683        3.48556        2.92576
C         10.44115        3.07542        1.79256
C          9.03406        3.61224        1.66404
O         10.98484        2.35039        0.99333
C          7.99072        2.48597        1.58058
H         -0.46303        1.15172        0.67429
H          0.74009        0.05578       -0.03949
H          0.54630        0.13301        1.72404
H          1.55802        2.45593       -0.04198
H          1.36189        2.52851        1.70548
H          3.07704        0.70681        1.97522
H          3.27530        0.63602        0.22606
H          4.03813        3.04052        0.22029
H          3.83748        3.10679        1.96900
H          5.56204        1.28860        2.23434
H          5.76258        1.22639        0.48528
H          6.51851        3.63201        0.48998
H          6.31616        3.68982        2.24008
H         11.94626        3.09659        2.93582
H          9.00577        4.20562        0.73610
H          8.81981        4.28879        2.50200
H          8.04637        1.87115        2.49397
H          8.25050        1.82143        0.74245
