27
N-PENTYLBENZENE.gamout	Energy:    -428.2380789
C          4.06638        2.49703        1.22377
C          5.02007        3.21731        2.19328
C          6.33685        3.61272        1.56250
C          2.74200        2.08716        1.87300
C          6.49418        4.86102        0.93898
C          7.42912        2.72979        1.56186
C          1.78551        1.36738        0.91721
C          7.70091        5.21460        0.32882
C          8.63812        3.07914        0.95441
C          0.46560        0.95305        1.56987
C          8.77848        4.32416        0.33347
H          4.57053        1.60396        0.81813
H          3.86917        3.15225        0.35889
H          4.51659        4.11425        2.58873
H          5.21475        2.56305        3.05840
H          2.95116        1.43569        2.73963
H          2.24264        2.98306        2.28213
H          5.66123        5.56789        0.93745
H          7.33246        1.75772        2.05117
H          1.58051        2.02170        0.05312
H          2.29032        0.47616        0.50750
H          7.80186        6.19195       -0.14749
H          9.47583        2.37904        0.96940
H         -0.19249        0.43959        0.85418
H          0.63869        0.26951        2.41548
H         -0.07850        1.82854        1.95693
H          9.72263        4.60028       -0.13916
