19
N-PENTYLAMINE.gamout	Energy:    -252.7713474
C         51.98224       10.04397        0.01143
C         50.67183        9.25072        0.00554
C         50.87683        7.73234        0.00259
C         51.77809       11.55849        0.02551
C         49.56915        6.93797       -0.00891
N         53.05944       12.26324       -0.00782
H         52.57899        9.75246        0.89412
H         52.58831        9.77945       -0.86994
H         50.07613        9.53904       -0.87812
H         50.06656        9.53376        0.88448
H         51.47303        7.44710        0.88575
H         51.48452        7.45231       -0.87421
H         51.20812       11.85520       -0.86948
H         51.15173       11.82921        0.90009
H         49.75753        5.85463       -0.01055
H         48.96911        7.17517       -0.90107
H         48.95478        7.16999        0.87495
H         52.93860       13.27059       -0.06226
H         53.61406       12.06775        0.82232
