21
N-PROPYLBENZENE.gamout	Energy:    -349.7199734
C         -1.56307        2.11870       -0.37633
C         -1.02697        1.32950        0.83134
C          0.48364        1.28966        0.92960
C         -3.09103        2.15045       -0.43856
C          1.25527        0.66716       -0.06696
C          1.15370        1.86684        2.01906
C          2.64879        0.62988        0.01930
C          2.54925        1.83262        2.10963
C          3.30295        1.21488        1.10892
H         -1.16587        3.14597       -0.33618
H         -1.16469        1.67919       -1.30468
H         -1.41900        0.29822        0.78729
H         -1.43782        1.76944        1.75360
H         -3.50529        1.13275       -0.50985
H         -3.44346        2.71994       -1.31042
H         -3.51541        2.61897        0.46297
H          0.75932        0.20060       -0.92108
H          0.57478        2.35080        2.80879
H          3.22776        0.13936       -0.76600
H          3.04808        2.28999        2.96662
H          4.39189        1.18590        1.17733
