23
N-PROPYL_N-BUTYRATE.gamout	Energy:    -425.1037240
O          5.71710        1.47618        1.30430
C          4.68298        2.31228        1.08977
C          3.35772        1.62029        1.33296
O          4.82303        3.46479        0.75030
C          7.04229        2.00647        1.11191
C          2.14098        2.50857        1.07319
C          8.04288        0.89997        1.40029
C          0.81788        1.78379        1.32653
C          9.48884        1.36939        1.22250
H          3.36316        1.25054        2.37183
H          3.33206        0.71653        0.70228
H          7.18080        2.86694        1.78349
H          7.13056        2.37625        0.07938
H          2.17942        2.87416        0.03604
H          2.20893        3.40396        1.70897
H          7.83496        0.05056        0.73117
H          7.88517        0.53785        2.42805
H          0.71187        0.90131        0.67616
H          0.74314        1.43812        2.36961
H         -0.03800        2.44566        1.13256
H          9.67559        1.71069        0.19279
H         10.19378        0.55464        1.43778
H          9.72630        2.20447        1.89937
