17
N-PROPYL_ACETATE.gamout	Energy:    -346.5860844
O          4.24781        4.63619        2.29666
C          4.71591        3.65090        1.51078
C          4.38202        5.98490        1.81415
C          4.50534        2.29429        2.13304
O          5.23944        3.84647        0.43822
C          3.79345        6.91288        2.86053
C          3.88447        8.38284        2.44699
H          3.86139        6.07013        0.84860
H          5.44686        6.19507        1.63339
H          3.90188        1.68164        1.44957
H          5.47980        1.79943        2.24323
H          4.01021        2.36718        3.10684
H          2.74303        6.63166        3.03346
H          4.32365        6.75255        3.81215
H          3.45410        9.03223        3.22096
H          4.92941        8.69219        2.29272
H          3.33762        8.57084        1.51040
