26
NICOTINE.gamout	Energy:    -498.3308640
C          0.29038       -0.52894       -0.11724
C          1.75124       -0.16422       -0.49065
C          2.03078        1.17346        0.24792
N          0.69289        1.72239        0.47305
C         -0.14230        0.58739        0.84627
C          2.96090        2.11019       -0.49435
C          2.52232        2.85077       -1.60550
N          3.31108        3.65623       -2.31938
C          4.59434        3.76675       -1.96155
C          5.13814        3.08323       -0.87167
C          4.30397        2.24548       -0.12873
C          0.63105        2.84295        1.38861
H          2.51012        0.93486        1.22569
H         -0.34429       -0.52688       -1.01303
H          0.20469       -1.52217        0.34280
H          2.47565       -0.93195       -0.18819
H          1.85802       -0.02753       -1.57430
H         -1.20800        0.84593        0.76978
H          0.04849        0.28136        1.90000
H          1.47541        2.78567       -1.91300
H          5.21498        4.43302       -2.56790
H          6.19030        3.20768       -0.61054
H          4.69169        1.70039        0.73509
H         -0.40601        3.19549        1.47460
H          1.24302        3.67452        1.01520
H          0.99173        2.57529        2.40662
