24
NICORANDIL.gamout	Energy:    -774.3685820
O          3.00755       -0.24766        0.50477
O         -0.96957        2.37053       -0.09956
O          4.61121       -0.24177       -1.04941
O          4.31201       -1.97176        0.24036
N          0.32876        0.70651        0.73045
N         -4.30776       -0.02087       -0.53422
N          4.07591       -0.86968       -0.16981
C          1.50549        1.53560        0.89460
C          2.67422        1.07872        0.03604
C         -0.84912        1.19972        0.23788
C         -1.99817        0.23265        0.12435
C         -1.95081       -1.12220        0.48184
C         -3.21490        0.72639       -0.38080
C         -3.09139       -1.90775        0.32287
C         -4.24646       -1.30993       -0.18981
H          1.81052        1.56393        1.95217
H          1.22783        2.55285        0.59199
H          3.54174        1.74043        0.16265
H          2.39892        1.03252       -1.02565
H          0.39800       -0.26418        0.99597
H         -1.04575       -1.58356        0.88072
H         -3.27701        1.77842       -0.66556
H         -3.08757       -2.96482        0.59101
H         -5.15941       -1.89653       -0.32746
