3
NITROSYL_CHLORIDE.gamout	Energy:    -589.7512567
Cl        34.16209       10.11171        0.00000
N         32.42342        9.09370        0.00000
O         32.54736        7.96856        0.00000
