4
NITROGEN_TRIFLUORIDE.gamout	Energy:    -353.7015803
F          0.13960       29.91783        0.12279
N          1.20330       29.29224       -0.48126
F          1.19313       28.05820        0.12278
F          2.27714       29.90066        0.12247
