5
NITROGEN_TRIOXIDE.gamout	Energy:    -334.5990193
O         -0.01294        1.85309        0.32668
N          0.80447        1.88689        1.12296
N          2.34696        1.15579        0.50290
O          2.46714       -0.01934        0.72036
O          3.09961        1.93672       -0.01320
