3
NO2-1.gamout	Energy:    -204.9269016
O         -1.07230        0.19940        0.00000
O          1.06348        0.24210        0.00000
N          0.00882       -0.44140        0.00000
