4
NO3-1.gamout	Energy:    -280.0588376
N          0.14506        0.58202        0.00000
O         -0.01344       -0.66459       -0.00000
O          1.30381        1.06813        0.00000
O         -0.85533        1.34255        0.00000
