15
O-BROMOTOLUENE.gamout	Energy:   -2844.3387275
C          6.32545        1.87744       -0.67599
C          6.85334        0.62870       -0.34205
C          4.94126        2.05566       -0.72495
C          4.09434        0.98207       -0.43954
C          4.64426       -0.25810       -0.10825
C          6.03272       -0.47409       -0.04861
Br         3.43068       -1.69879        0.27319
C          6.63366       -1.80851        0.30787
H          6.99561        2.70965       -0.89748
H          7.93655        0.49478       -0.30527
H          4.51437        3.02590       -0.98436
H          3.01210        1.10488       -0.47342
H          7.72952       -1.75689        0.29598
H          6.31168       -2.13562        1.30807
H          6.31473       -2.58960       -0.39880
