16
O-DINITROBENZENE.gamout	Energy:    -640.4810641
C          6.29407        1.89543       -0.67021
C          6.82228        0.64504       -0.35859
C          4.90824        2.06997       -0.70683
C          4.05777        0.99737       -0.42782
C          4.58851       -0.25406       -0.10482
C          5.96990       -0.42478       -0.05868
N          6.48193       -1.73070        0.40115
N          8.28626        0.47861       -0.44703
O          8.69548       -0.52564       -1.00315
O          8.97323        1.38340       -0.00297
O          5.92059       -2.72573       -0.02617
O          7.39129       -1.71317        1.21239
H          6.97832        2.71273       -0.89541
H          4.49616        3.04778       -0.95852
H          2.97587        1.13120       -0.45643
H          3.94681       -1.10264        0.12916
