15
O-NITROPHENOL.gamout	Energy:    -511.3743303
C          6.31332        1.82112       -0.66008
C          6.84696        0.56363       -0.32448
C          4.90919        2.03072       -0.71836
N          7.23215        2.90205       -0.94654
C          6.00075       -0.49528       -0.04398
C          4.07072        0.93647       -0.42807
O          4.34230        3.19545       -1.02999
C          4.60713       -0.29947       -0.09819
O          6.75378        4.01378       -1.24430
O          8.43223        2.69868       -0.89000
H          7.92934        0.45573       -0.29414
H          6.41178       -1.47051        0.21607
H          2.99389        1.09886       -0.47290
H          5.06745        3.84044       -1.20122
H          3.93472       -1.13043        0.12202
