17
O-NITROTOLUENE.gamout	Energy:    -475.4806464
C          6.31776        1.86331       -0.66647
C          6.89954        0.62503       -0.34059
C          4.93716        2.05748       -0.70535
C          4.07187        0.99654       -0.42387
C          4.60499       -0.24842       -0.10793
C          5.99377       -0.42448       -0.06230
N          6.46094       -1.77846        0.29464
C          8.40366        0.51398       -0.32968
O          5.64070       -2.68752        0.28363
O          7.63956       -1.92795        0.59183
H          6.98044        2.69880       -0.89714
H          4.53789        3.04078       -0.95926
H          2.99065        1.13502       -0.45153
H          3.96617       -1.10171        0.10902
H          8.84414        1.44646       -0.70449
H          8.78273        0.32419        0.68360
H          8.75747       -0.32021       -0.94963
