16
O-TOLUNITRILE.gamout	Energy:    -363.3356966
N          7.85868        3.90324       -1.00450
C          7.16182        2.99188       -0.82695
C          6.30558        1.85868       -0.60586
C          6.87397        0.58652       -0.34746
C          4.91007        2.03270       -0.64984
C          8.36809        0.39922       -0.30089
C          5.99654       -0.48466       -0.13833
C          4.06289        0.94697       -0.43778
C          4.61009       -0.31348       -0.18159
H          4.50341        3.02422       -0.85097
H          8.83482        0.68420       -1.25617
H          8.82430        1.03164        0.47586
H          8.62778       -0.64546       -0.09004
H          6.41059       -1.47445        0.06240
H          2.98152        1.08463       -0.47238
H          3.95497       -1.17010       -0.01416
