17
O-TOLUIDINE.gamout	Energy:    -326.4982648
N          1.73966       -1.47840       -0.00089
C          0.62911        0.68632       -0.00020
C          0.57618       -0.73155       -0.00049
C         -0.57546        1.39834        0.00021
C         -0.67634       -1.37605       -0.00030
C          1.96171        1.39146       -0.00040
C         -1.81869        0.75888        0.00039
C         -1.85911       -0.63824        0.00010
H         -0.53541        2.49051        0.00041
H         -0.71258       -2.46820       -0.00051
H          2.56235        1.12999        0.88804
H          2.56195        1.13027       -0.88919
H          1.83005        2.48076       -0.00017
H         -2.73959        1.34322        0.00069
H         -2.81761       -1.16099        0.00021
H          2.64955       -1.04986       -0.00099
H          1.70521       -2.48464       -0.00110
