40
OCTYL-4-HYDROXYBENZOATE.gamout	Energy:    -809.5181042
O         -1.27770       -0.22531        0.08615
O         -1.44288        0.92368       -1.84802
O         -6.96861        2.30104        1.08157
C          3.66635        0.58172        0.24225
C          5.05940        0.01395       -0.04412
C          2.52507       -0.35198       -0.17316
C          6.20085        0.94754        0.36945
C          1.13627        0.21977        0.13133
C          7.59527        0.37935        0.08543
C          0.01981       -0.73075       -0.28158
C          8.73225        1.31664        0.49727
C         -1.91006        0.59455       -0.77705
C         -3.23779        1.03608       -0.27081
C         -3.73939        0.63353        0.98015
C         -4.01739        1.88332       -1.07382
C         -4.98650        1.06371        1.41971
C         -5.26730        2.31909       -0.64260
C         -5.75630        1.90902        0.60738
H          3.57906        0.80537        1.31948
H          3.55067        1.54721       -0.27921
H          5.14556       -0.21077       -1.12136
H          5.17188       -0.95242        0.47755
H          2.64421       -1.32095        0.34238
H          2.60570       -0.56664       -1.25227
H          6.11352        1.17574        1.44613
H          6.08796        1.91253       -0.15489
H          1.04738        0.42763        1.20979
H          1.00282        1.17626       -0.39624
H          7.70361       -0.58554        0.60912
H          7.67648        0.15051       -0.99061
H          0.03837       -0.91420       -1.36412
H          0.10277       -1.68865        0.24873
H          8.69649        1.53311        1.57621
H          8.66471        2.27778       -0.03553
H          9.71592        0.87843        0.27519
H         -3.14124       -0.02291        1.60973
H         -3.62634        2.19456       -2.04239
H         -5.38249        0.75566        2.38752
H         -5.86846        2.97807       -1.27413
H         -7.41808        2.87706        0.45201
