2
OH-1.gamout	Energy:     -75.7158808
O         -0.22466       -0.32622        0.00000
H          0.74216       -0.28458        0.00000
