7
OXALATE_MONOANION-1.gamout	Energy:    -377.3706109
O         -1.62588       -0.57497        0.00000
O          1.75903        0.52736       -0.00000
O          0.33246       -1.72603        0.00000
O         -0.07961        1.78377        0.00000
C         -0.39094       -0.71236        0.00000
C          0.40292        0.67169       -0.00000
H          2.10853        1.43244        0.00000
