6
OXALATE_DIANION-2.gamout	Energy:    -376.6639234
O         -1.66829       -0.64288        0.00000
O          1.66829        0.64284       -0.00000
O          0.27939       -1.76568        0.00000
O         -0.27936        1.76573       -0.00000
C         -0.40813       -0.70762        0.00000
C          0.40810        0.70760        0.00000
