26
P-AMINOAZOBENZENE.gamout	Energy:    -627.3224839
N          6.46630        3.99165       -0.60322
N          6.99136        2.85786       -0.47441
C          6.11447        1.76587       -0.40794
C          7.36330        5.08232       -0.66797
C          6.70203        0.49539       -0.27212
C          4.70713        1.85752       -0.46598
C          6.77837        6.35070       -0.81763
C          8.76559        4.96836       -0.59231
C          5.92264       -0.65199       -0.19511
C          3.92471        0.71756       -0.38983
C          7.57841        7.49247       -0.89168
C          9.55669        6.11170       -0.66667
C          4.51591       -0.56213       -0.25057
C          8.96960        7.37698       -0.81634
N          3.73054       -1.69464       -0.20617
H          7.79031        0.43337       -0.22774
H          4.24964        2.84063       -0.57004
H          5.69077        6.41429       -0.87442
H          9.20851        3.98012       -0.47705
H          6.39499       -1.63118       -0.09292
H          2.83619        0.79757       -0.43800
H          7.11593        8.47439       -1.00743
H         10.64336        6.02208       -0.60726
H          9.59772        8.26783       -0.87386
H          2.73890       -1.60184       -0.04225
H          4.13919       -2.56853        0.09075
