14
P-CHLOROANILINE.gamout	Energy:    -746.6498154
C          6.33501        1.85985       -0.68355
C          6.85455        0.59685       -0.33962
C          4.93588        2.01650       -0.72072
N          7.18007        2.93616       -0.92838
C          4.08694        0.94945       -0.43053
C          4.62395       -0.29480       -0.09499
C          6.00807       -0.47202       -0.04878
Cl         3.55273       -1.64272        0.27170
H          7.93629        0.45262       -0.29683
H          4.50880        2.98806       -0.97856
H          6.79760        3.72245       -1.43526
H          8.13947        2.72996       -1.17024
H          3.00595        1.08552       -0.46457
H          6.42486       -1.44394        0.21556
