16
P-CRESOL.gamout	Energy:    -346.3466660
C          0.39408        1.08162        1.85009
C          1.90270        1.04020        1.91264
C          2.66714        0.48016        0.88138
C          2.59412        1.57585        3.01397
C          4.06490        0.45317        0.93729
C          3.98539        1.55821        3.08721
C          4.72896        0.99398        2.04274
O          6.09152        0.99796        2.15885
H          0.01343        0.52100        0.98578
H         -0.05791        0.64948        2.75633
H          0.02428        2.11629        1.76517
H          2.16550        0.05204        0.01061
H          2.02808        2.01850        3.83726
H          4.63615        0.00835        0.11800
H          4.51225        1.97535        3.94621
H          6.49894        0.58654        1.38833
