12
P-DIBROMOBENZENE.gamout	Energy:   -5378.2105055
C          0.85074        1.07737       -0.28570
C          1.37561       -0.17356        0.04823
C         -0.53538        1.25222       -0.33447
C         -1.37561        0.17356       -0.04823
C         -0.85074       -1.07736        0.28570
Br        -3.27126        0.41290       -0.11473
C          0.53538       -1.25223        0.33448
Br         3.27127       -0.41290        0.11473
H          1.51502        1.91257       -0.50712
H         -0.95451        2.22427       -0.59425
H         -1.51502       -1.91256        0.50712
H          0.95449       -2.22429        0.59426
