20
P-ETHYLANILINE.gamout	Energy:    -365.7561904
C          6.44429        1.68393       -1.14376
C          6.90939        0.58271       -0.40189
C          5.07688        1.92569       -1.27597
C          4.11730        1.09023       -0.68331
C          4.59181       -0.01015        0.04692
C          2.63650        1.38588       -0.79402
C          5.95564       -0.26677        0.18825
N          8.27353        0.30610       -0.30576
C          2.11064        2.30758        0.31817
H          7.16350        2.35105       -1.62501
H          4.74973        2.78855       -1.86176
H          3.87638       -0.69156        0.51421
H          2.42825        1.84516       -1.77344
H          2.07474        0.43823       -0.77605
H          6.28903       -1.13926        0.75522
H          8.56575       -0.28087        0.46403
H          8.90611        1.07707       -0.47362
H          1.03221        2.49447        0.20077
H          2.27600        1.86120        1.30974
H          2.62878        3.27799        0.29982
