21
P-ETHYLTOLUENE.gamout	Energy:    -349.7228986
C          2.44450        5.19249        0.79019
C          3.30301        4.89052        2.02736
C          4.43641        3.91654        1.77341
C          5.77731        4.29869        1.93184
C          4.18175        2.59452        1.37789
C          6.81993        3.39974        1.69549
C          5.22436        1.69475        1.14280
C          6.56488        2.07917        1.29551
C          7.69823        1.11464        1.03964
H          1.64717        5.91063        1.03317
H          1.96766        4.28098        0.40147
H          3.05683        5.61819       -0.01813
H          3.72234        5.83031        2.41713
H          2.65663        4.49276        2.82807
H          6.01012        5.31935        2.24416
H          3.15049        2.25656        1.25294
H          7.85300        3.73188        1.82505
H          4.99096        0.67245        0.83612
H          8.36346        1.48490        0.24374
H          8.31855        0.97762        1.93957
H          7.32597        0.12767        0.73479
