16
P-NITROANILINE.gamout	Energy:    -491.5237833
O          6.69086        4.03550       -1.23859
N          7.19913        2.95591       -0.94883
O          8.41033        2.76447       -0.88526
C          6.31318        1.83620       -0.66409
N          3.77760       -1.37308        0.15270
C          4.60992       -0.32129       -0.12244
C          6.85803        0.58791       -0.33874
C          4.92589        2.01824       -0.71862
C          6.01545       -0.47964       -0.06968
C          4.08283        0.95103       -0.44917
H          2.77808       -1.28613        0.05481
H          4.14403       -2.29730        0.31932
H          7.93991        0.47459       -0.29979
H          4.52891        2.99975       -0.97132
H          6.43631       -1.45449        0.18324
H          3.00084        1.08828       -0.49250
