28
P-P-DDT.gamout	Energy:   -2838.2437071
C          7.33550        2.84163       -0.97835
C          6.34325        1.72069       -0.66215
C          8.56888        2.84494       -0.07358
C          6.68529        4.24211       -1.19996
C          9.80895        2.52113       -0.64511
C          8.53084        3.10767        1.30442
C          6.18857        0.68817       -1.59965
C          5.60870        1.63938        0.53097
Cl         7.94206        5.39314       -1.79455
Cl         5.40719        4.10866       -2.46762
Cl         5.92964        4.96430        0.26952
C          9.68821        3.05722        2.08264
C         10.90688        2.73386        1.48395
C         10.97591        2.46168        0.11772
Cl        12.36415        2.66741        2.45947
C          5.33023       -0.38783       -1.37012
C          4.60658       -0.43568       -0.17861
C          4.74154        0.57401        0.77567
Cl         3.51963       -1.77967        0.12539
H          7.71449        2.61998       -1.98417
H          9.87258        2.31279       -1.71436
H          7.59580        3.36275        1.79555
H          6.74617        0.72278       -2.53688
H          5.69663        2.41244        1.28920
H          9.64207        3.26750        3.15060
H         11.92880        2.20863       -0.34604
H          5.22219       -1.17922       -2.11101
H          4.17395        0.52805        1.70432
