19
P-TOLUENESULFONIC_ACID.gamout	Energy:    -894.5901306
S          2.12799        0.17366        0.04019
O          2.50398       -0.33091       -1.49305
O          2.57890        1.56972        0.13091
O          2.63402       -0.87002        0.92618
C          0.33337        0.11468        0.03425
C         -2.46070        0.00831        0.01952
C         -0.39508        1.28640       -0.18345
C         -0.30731       -1.10709        0.26113
C         -1.79002        1.22250       -0.18803
C         -1.70139       -1.15009        0.24975
C         -3.96329       -0.06108       -0.04698
H          0.12527        2.23161       -0.33211
H          0.27997       -2.00436        0.45207
H         -2.37296        2.13276       -0.34779
H         -2.21466       -2.09793        0.42892
H         -4.36211       -0.85613        0.59797
H         -4.42948        0.88960        0.24577
H         -4.28349       -0.28363       -1.07734
H          2.80161        0.44642       -1.99357
