17
P-TOLUIDINE.gamout	Energy:    -326.4978066
C          7.27232        3.04169       -0.99185
C          6.35328        1.88764       -0.66643
C          6.85739        0.61007       -0.37698
C          4.95800        2.03764       -0.66560
C          6.01653       -0.46794       -0.10039
C          4.61891       -0.30724       -0.10683
N          3.77224       -1.36767        0.21883
C          4.10286        0.97009       -0.39096
H          8.23110        2.95263       -0.46094
H          7.50044        3.08562       -2.07037
H          6.82078        4.00527       -0.71549
H          7.93872        0.45148       -0.36211
H          4.52454        3.01786       -0.87961
H          6.44454       -1.44677        0.12867
H          2.81412       -1.29741       -0.09699
H          4.15131       -2.29946        0.11472
H          3.02149        1.12640       -0.39008
