16
PE-1.gamout	Energy:    -346.0369358
O         -2.89679        2.51633        0.00027
O         -3.08897        0.26081        0.00182
C         -0.30700       -0.17914       -0.00131
C          1.22482       -0.22990        0.00027
C         -0.88500        1.23622       -0.00053
C          1.79783       -1.65132        0.00029
C         -2.45072        1.34209        0.00098
H         -0.69648       -0.72467        0.87403
H         -0.69614       -0.72511       -0.87614
H          1.60878        0.31600       -0.88027
H          1.60820        0.31586        0.88104
H         -0.52262        1.79877       -0.87939
H         -0.52211        1.79883        0.87818
H          2.89967       -1.64781        0.00088
H          1.46265       -2.21374        0.88689
H          1.46387       -2.21342       -0.88700
