13
PENTACHLOROPHENOL.gamout	Energy:   -2604.1210278
C          6.33233        1.85233       -0.66842
C          6.87130        0.59737       -0.33332
C          4.94210        2.03406       -0.71921
Cl         7.43101        3.14954       -1.01238
C          4.07320        0.96324       -0.43534
Cl         4.29605        3.58833       -1.13471
C          4.60562       -0.29238       -0.09988
Cl         2.35311        1.19079       -0.49907
Cl         3.55956       -1.62957        0.25482
C          5.99553       -0.46382       -0.05181
Cl         6.71321       -2.00363        0.35967
O          8.20541        0.45913       -0.29451
H          8.43830       -0.45048       -0.05236
