21
PERFLUOROMETHYLCYCLOHEXANE.gamout	Energy:   -1662.6967348
C         -3.44958        0.34351        2.53048
F         -3.08761        1.31670        3.36838
F         -2.40375       -0.46773        2.36080
F         -4.44175       -0.35115        3.08590
C         -3.86339        0.96765        1.14593
F         -2.76779        1.65134        0.69974
C         -5.03910        2.00034        1.28374
C         -4.20591       -0.12978        0.07435
F         -6.09608        1.40052        1.86877
F         -4.64906        3.03263        2.04868
C         -5.51798        2.59227       -0.08614
F         -5.17833       -0.93157        0.55327
F         -3.11651       -0.87313       -0.17737
C         -4.68844        0.46123       -1.29483
F         -6.61937        3.32718        0.13668
F         -4.55317        3.39228       -0.57570
C         -5.84398        1.49753       -1.14773
F         -5.10610       -0.55439       -2.06734
F         -3.64531        1.06391       -1.89491
F         -6.96504        0.84980       -0.77759
F         -6.05658        2.08815       -2.33449
