17
PERFLUOROPENTANE.gamout	Energy:   -1387.1299087
C         43.69454       18.51644       -0.71050
C         43.48214       20.06212       -0.52944
C         44.75617       20.84166       -0.03942
F         43.09862       20.57949       -1.71308
F         42.49730       20.25237        0.37055
C         42.42939       17.72775       -1.20211
F         44.66825       18.30841       -1.61647
F         44.06611       17.98039        0.46687
C         44.55308       22.38709        0.14464
F         45.74831       20.67346       -0.93300
F         45.14507       20.34629        1.15008
F         42.75942       16.43940       -1.31023
F         41.42568       17.84176       -0.33261
F         42.02811       18.16966       -2.39398
F         44.21146       22.96456       -1.00729
F         43.61236       22.63857        1.05489
F         45.70657       22.91186        0.56195
