18
PERFLUORONAPHTHALENE.gamout	Energy:   -1178.4150323
C          6.84836        1.19382        1.52775
C          5.71164        0.52781        1.93127
F          7.91368        1.25978        2.31988
C          6.89659        1.81870        0.26141
C          5.80652        1.76744       -0.57972
F          8.00605        2.45369       -0.10258
C          4.61443        1.09024       -0.20154
F          5.89724        2.37262       -1.76468
F          5.71391       -0.04581        3.13518
C          4.56516        0.45107        1.09281
C          3.37307       -0.22613        1.47098
C          3.46796        1.01350       -1.04001
F          3.46571        1.58709       -2.24393
C          2.33124        0.34749       -0.63649
C          2.28301       -0.27738        0.62985
F          1.26593        0.28149       -1.42863
F          1.17356       -0.91240        0.99382
F          3.28235       -0.83130        2.65595
