20
PERFLUORO-3-METHYLPENTANE.gamout	Energy:   -1624.6516906
C          1.11400       -0.28497       -0.01942
C          0.65235        0.08160        1.44363
C          0.99209        1.51273        2.03183
C          0.50001        2.76210        1.19030
C         -1.02943        3.06759        1.03156
C          0.58460        1.57082        3.56677
F          0.31095        0.26423       -0.92905
F          1.03274       -1.61194       -0.14415
F          2.37070        0.08886       -0.25140
F         -0.67645       -0.13532        1.48817
F          1.25911       -0.81321        2.25120
F          2.35422        1.62798        2.01638
F          1.05975        3.85971        1.73128
F          1.00202        2.62765       -0.05575
F         -1.61647        3.20436        2.22179
F         -1.15416        4.21153        0.35941
F         -1.64362        2.10334        0.34884
F          1.42466        0.82148        4.27722
F          0.66091        2.81843        4.03313
F         -0.65811        1.12472        3.76244
