23
PERFLUOROHEPTANE.gamout	Energy:   -1862.1806946
C          1.10898       -0.17529        0.32130
C         -0.06672       -0.53506       -0.66506
C         -1.50764       -0.58340        0.00314
F         -0.08435        0.35216       -1.68112
F          0.18556       -1.75351       -1.16901
C          2.42213        0.27405       -0.41852
F          0.72984        0.82782        1.13420
F          1.37604       -1.26294        1.06936
C         -2.34225        0.74257       -0.12657
F         -1.37746       -0.91050        1.30636
F         -2.20361       -1.55798       -0.60540
C          3.71740        0.20894        0.46257
F          2.63019       -0.51305       -1.49306
F          2.26945        1.54503       -0.82877
C         -3.57341        0.83221        0.84126
F         -2.80557        0.82755       -1.38626
F         -1.56109        1.81038        0.12594
F          4.70849        0.81289       -0.19432
F          3.52620        0.83522        1.62655
F          4.06850       -1.05413        0.69790
F         -4.31364        1.88332        0.48759
F         -3.17441        0.99393        2.10166
F         -4.32095       -0.27050        0.75588
