20
PERFLUORO-2,3-DIMETHYLBUTANE.gamout	Energy:   -1624.6535216
C         18.39749       56.49288        0.07597
F         17.39826       55.62178       -0.10427
F         17.89040       57.72472        0.06218
F         18.93638       56.29724        1.27707
C         19.47403       56.35549       -1.07949
C         18.75903       56.44080       -2.48753
F         17.92745       57.48445       -2.50665
F         18.05905       55.34059       -2.76135
F         19.65923       56.62727       -3.45245
F         20.22600       57.49350       -0.98523
C         20.51055       55.15119       -0.86122
F         21.20795       55.48354        0.26693
C         19.90070       53.72160       -0.56837
C         21.61232       55.04301       -1.99489
F         20.88847       52.83894       -0.40663
F         19.11585       53.29713       -1.55744
F         19.19334       53.74615        0.56075
F         22.06140       56.24169       -2.35913
F         22.65293       54.34927       -1.53601
F         21.12435       54.41277       -3.06960
