7
PF6-1.gamout	Energy:    -939.9135628
P          1.80802       -1.44279        0.16135
F          3.30407       -1.45820        0.87134
F          1.20055       -0.61961        1.46372
F          1.44391       -2.87831        0.90204
F          2.41779       -2.26719       -1.13955
F          2.17283       -0.00671       -0.57896
F          0.31073       -1.42719       -0.54815
