13
PHENOL.gamout	Energy:    -307.0851999
O          0.37073        2.39075        0.07636
C          1.73144        2.26993        0.06083
C          2.48441        3.44920        0.07468
C          2.37607        1.02789        0.03389
C          3.87669        3.37845        0.06212
C          3.77186        0.97003        0.02135
C          4.52969        2.14221        0.03549
H         -0.04679        1.52238        0.06005
H          1.96619        4.40766        0.09501
H          1.78858        0.10684        0.02275
H          4.45850        4.30100        0.07325
H          4.26704       -0.00191        0.00007
H          5.61855        2.09489        0.02697
