15
PHLOROGLUCINOL.gamout	Energy:    -457.3751714
O         -3.26273       -0.85559       -0.56629
O          1.35450       -1.80389        0.16365
O         -0.31587        2.60637        0.87569
C         -2.02531       -0.41224       -0.20305
C          0.29747       -0.94241        0.15139
C         -0.49661        1.30099        0.52513
C         -0.98793       -1.35306       -0.21376
C         -1.79399        0.91676        0.16393
C          0.55734        0.38265        0.52323
H         -1.19828       -2.38326       -0.50464
H         -2.59676        1.65545        0.17459
H          1.57057        0.67436        0.80330
H         -3.90493       -0.13782       -0.52736
H          1.07587       -2.68640       -0.10591
H          0.60550        2.77126        1.10600
