4
PHOSPHORUS_TRICHLORIDE.gamout	Energy:   -1721.3022396
Cl        -0.96220        1.59318        0.24569
Cl        -0.89868       -1.62990        0.24590
Cl         1.86099        0.03671        0.24540
P         -0.00011       -0.00009       -0.72185
