4
PHOSPHINE.gamout	Energy:    -342.9902450
P         -0.69622        0.40276        0.23141
H          0.72824        0.41531        0.34298
H         -0.66351        0.14119       -1.17303
H         -0.77384        1.81748        0.04691
