7
PHOSPHOROUS_ACID.gamout	Energy:    -568.4963097
O          0.29669        2.18486        0.29907
P          1.69347        1.29718        0.18629
O          1.10174       -0.15897       -0.43394
O          2.32654        1.78519       -1.26618
H         -0.25723        2.19258       -0.49745
H          0.82736       -0.78061        0.25197
H          2.03892        1.24622       -2.01909
