8
PHOSPHORIC_ACID.gamout	Energy:    -643.6590281
P          0.64108        2.53853        0.48423
O          0.09674        3.19395       -0.71286
O          0.67895        0.91678        0.35949
O         -0.21627        2.85728        1.82979
O          2.16781        2.99406        0.81573
H          1.02308        0.40435        1.10168
H          0.07150        2.46683        2.66445
H          2.60445        2.61082        1.58661
