6
PHOSPHONATE-1.gamout	Energy:    -567.9647139
P          0.13882       -0.15164        0.42738
O          1.14030        1.21484        0.27215
O          0.96540       -1.38556        0.13100
O         -1.16760        0.20412       -0.27527
H         -0.07840       -0.09494        1.84041
H          0.58329        1.88908       -0.13787
