18
PHTHALIC_ACID.gamout	Energy:    -608.6564923
C         -1.10162       -0.21686        0.27247
C         -0.42089        0.99831        0.31251
C         -0.43378       -1.35819       -0.15895
C          0.90266       -1.26297       -0.54247
C          1.61617       -0.04909       -0.51312
C          0.92932        1.12527       -0.06931
C          3.05726       -0.13070       -0.96499
C          1.50636        2.51891        0.03638
O          0.57769        3.40725        0.49890
O          2.61796        2.89322       -0.22702
O          3.87287        0.74958       -1.03295
O          3.39337       -1.40452       -1.32567
H         -2.14785       -0.26193        0.57877
H         -0.94694        1.88584        0.65012
H         -0.94076       -2.32330       -0.20106
H          1.41970       -2.15636       -0.87846
H          1.02748        4.26448        0.53498
H          4.32200       -1.36487       -1.59867
