23
PIMELIC_ACID.gamout	Energy:    -574.2182843
C          3.70593        2.45769        4.39861
C          4.16870        3.21845        3.15514
C          5.63018        3.66839        3.25128
C          2.27502        1.95898        4.41729
C          6.10083        4.42876        2.00782
O          1.57689        2.26378        3.30047
O          1.78165        1.34381        5.33214
C          7.56012        4.87694        2.10970
C          8.13489        5.64199        0.93446
O          7.25543        5.82819       -0.07523
O          9.26816        6.05630        0.88056
H          3.82245        3.07295        5.30551
H          4.33448        1.56931        4.57420
H          3.52323        4.09638        2.99860
H          4.03598        2.58301        2.26636
H          5.76073        4.30537        4.14337
H          6.27576        2.78665        3.40936
H          5.97176        3.79430        1.11779
H          5.45878        5.30851        1.84758
H          0.68263        1.90375        3.41154
H          8.22933        4.01464        2.26363
H          7.71530        5.51964        2.99148
H          7.71555        6.32239       -0.77215
