16
PIPERAZINE.gamout	Energy:    -267.5729212
C         -2.16472       -0.17730       -0.08571
C         -1.58751       -1.56458       -0.34280
C          0.07917        0.21616        0.88764
C          0.52891       -0.28572       -0.49046
N         -0.24777       -1.45135       -0.93230
H         -2.24720       -2.11174       -1.03378
H         -1.58697       -2.12226        0.61467
H          0.27543       -2.31117       -0.81679
H          1.59552       -0.55305       -0.47098
H          0.42183        0.53396       -1.22320
N         -1.35696        0.52539        0.91843
H          0.64597        1.11468        1.17200
H          0.31132       -0.55673        1.64205
H         -1.52288        1.52441        0.88602
H         -3.19857       -0.27558        0.27919
H         -2.21031        0.36257       -1.05211
