22
POHPY+1.gamout	Energy:    -441.2472735
O         -3.85619       -0.51777        0.73303
C         -2.85278       -1.39694        0.28553
C         -2.53422       -1.18941       -1.20128
H         -1.96809       -1.16961        0.90045
H         -3.11776       -2.45364        0.47749
C         -1.38091       -2.04390       -1.73170
H         -2.34364       -0.11944       -1.37723
H         -3.41348       -1.44791       -1.81094
N         -0.07755       -1.77132       -1.05252
H         -1.22636       -1.86488       -2.80234
H         -1.58035       -3.11307       -1.59893
C          0.44624       -2.68025       -0.20131
C          1.64839       -2.44104        0.44596
C          2.32047       -1.24001        0.21445
C          0.56206       -0.60454       -1.29209
C          1.76346       -0.31252       -0.66949
H         -0.12059       -3.59777       -0.05828
H          2.04296       -3.19618        1.12343
H          3.26711       -1.02901        0.71495
H          0.08580        0.07725       -1.99337
H          2.25215        0.63567       -0.88339
H         -4.73424       -0.83044        0.48438
