9
PROPIONITRILE.gamout	Energy:    -171.8404600
N          2.50907       -0.72758       -0.00000
C         -0.11247       -0.61320        0.00000
C         -0.64771        0.82690       -0.00000
C          1.35182       -0.68468        0.00000
H         -0.47670       -1.16167        0.88284
H         -0.47671       -1.16163       -0.88285
H         -1.74601        0.81059       -0.00001
H         -0.30922        1.37352       -0.89024
H         -0.30923        1.37353        0.89024
