11
PROPYL_IODIDE.gamout	Energy:    -416.0715272
I          2.58317       -0.61819        0.76312
C         -0.50536       -0.52616        0.34724
C          0.73059        0.28956        0.00367
C         -1.78312        0.13392       -0.18932
H         -0.40513       -1.53992       -0.06817
H         -0.57726       -0.64279        1.43892
H          0.88631        0.37791       -1.07768
H          0.71116        1.28999        0.45067
H         -2.66549       -0.46861        0.07018
H         -1.92319        1.13862        0.23735
H         -1.75449        0.23355       -1.28515
