9
PROPYLENE.gamout	Energy:    -117.7434815
C          0.66812        0.99373        0.86546
C          1.76513        1.96701        1.18389
C          3.07271        1.69165        1.18644
H         -0.03457        0.89806        1.70991
H          0.07571        1.33650        0.00087
H          1.06764       -0.00422        0.63534
H          1.44480        2.98572        1.43221
H          3.81516        2.45424        1.42837
H          3.44725        0.69275        0.94633
