7
PROPADIENE.gamout	Energy:    -116.5001605
C          3.13397        0.81561        0.67382
C          1.94779        1.36797        0.73198
C          0.76138        1.91981        0.79015
H          3.34190       -0.01110       -0.01171
H          3.95380        1.16377        1.30886
H         -0.00428        1.54668        1.47659
H          0.49888        2.77072        0.15487
