11
PROPYLENEIMINE.gamout	Energy:    -173.0123719
C         -1.64821        0.79291       -1.95549
N         -0.74941        0.73903       -0.79631
C         -2.04453        1.41344       -0.66322
C         -2.02232        2.90553       -0.43577
H         -1.30120        1.42606       -2.77645
H         -2.15837       -0.12181       -2.27095
H         -0.74678       -0.18041       -0.36063
H         -2.81927        0.87609       -0.10365
H         -1.84940        3.13684        0.62648
H         -2.98021        3.36078       -0.73203
H         -1.21684        3.36979       -1.02079
