16
PROTOCATECHUALDEHYDE.gamout	Energy:    -495.4223705
O          2.58384       -1.61715        0.00042
O          3.20905        0.95524        0.00061
O         -3.17812        0.19963       -0.00201
C         -0.80974       -0.12448       -0.00109
C          1.55377       -0.72812       -0.00001
C          0.21058       -1.09369       -0.00060
C          1.89090        0.64440        0.00008
C         -0.46593        1.23638       -0.00099
C          0.87430        1.60976       -0.00041
C         -2.22337       -0.55007       -0.00162
H         -0.05468       -2.15522       -0.00070
H         -1.25914        1.98394       -0.00132
H          1.14982        2.66749       -0.00030
H         -2.37823       -1.65832       -0.00166
H          2.25373       -2.52254        0.00038
H          3.33554        1.91117        0.00066
