10
PYRAZINE.gamout	Energy:    -263.9838884
C          0.98205        1.04749        1.82736
C          0.95851        0.32830        0.62581
N          2.12870        1.43113        2.39052
N          2.08168       -0.00652       -0.01101
C          3.25185        1.09637        1.75368
C          3.22831        0.37713        0.55215
H          0.05365        1.31619        2.34000
H          0.01121        0.01939        0.17400
H          4.19916        1.40521        2.20551
H          4.15672        0.10850        0.03948
