17
QUINOLINE.gamout	Energy:    -401.4103555
N         -1.18938       -1.39562       -0.00005
C         -2.32590       -0.73531        0.00030
C         -2.41590        0.68261        0.00016
C         -1.25242        1.41831       -0.00010
C         -0.00120        0.74627       -0.00017
C          1.25188        1.41877       -0.00007
C          2.43103        0.70424        0.00023
C          2.40790       -0.71508        0.00017
C          1.20972       -1.39747       -0.00003
C         -0.02362       -0.68968       -0.00027
H         -3.24283       -1.33427        0.00052
H         -3.39290        1.16731       -0.00004
H         -1.27713        2.51054       -0.00049
H          1.26602        2.51092       -0.00045
H          3.38784        1.22883        0.00041
H          3.34867       -1.26871       -0.00010
H          1.17220       -2.48722       -0.00043
