26
S-NICOTINE.gamout	Energy:    -498.3307595
C          0.29859       -0.53071       -0.11150
C          1.75760       -0.16403       -0.48115
C          2.02670        1.17834        0.24687
N          0.68811        1.72605        0.45876
C         -0.13825        0.58962        0.84281
C          2.95614        2.11048       -0.49557
C          2.51773        2.85889       -1.59828
N          3.30791        3.66406       -2.30958
C          4.59231        3.76463       -1.95730
C          5.13796        3.07145       -0.87511
C          4.29981        2.23690       -0.13546
C          0.63503        2.83935        1.38010
H          2.50267        0.95594        1.22929
H         -0.33377       -0.53954       -1.00871
H          0.21705       -1.52076        0.35764
H          2.48164       -0.92562       -0.16519
H          1.87653       -0.03657       -1.56491
H         -1.20645        0.83727        0.77066
H          0.06869        0.29908        1.89703
H          1.46935        2.80331       -1.89982
H          5.21573        4.43148       -2.56127
H          6.19198        3.18865       -0.61834
H          4.68327        1.68377        0.72334
H         -0.39639        3.20458        1.46944
H          1.25623        3.66674        1.01317
H          0.99631        2.56205        2.39530
