15
SALICYLATE-1.gamout	Energy:    -494.9345935
O          0.21465       -2.05920       -0.66078
O          2.33604       -0.86354       -0.34198
O          2.38737        1.30063        0.29092
C          0.26504        0.23846        0.01112
C         -0.44530       -0.94657       -0.32602
C         -0.46137        1.38204        0.35624
C         -1.85533       -0.93915       -0.30317
C         -1.85834        1.38867        0.37859
C         -2.55170        0.21704        0.04619
C          1.79374        0.25361       -0.00692
H          0.11323        2.27477        0.60951
H         -2.37859       -1.85980       -0.56487
H         -2.40111        2.29536        0.65208
H         -3.64696        0.20549        0.05834
H          1.22224       -1.76009       -0.58864
