3
SCN-1.gamout	Energy:    -490.8311111
C         -1.56199        0.92739        0.00000
N         -0.38406        0.92806       -0.00000
S         -3.23655        0.92620        0.00000
