15
SEC-BUTANOL.gamout	Energy:    -233.3690696
C         -0.47017        0.02541       -0.32611
C         -1.74853        0.79902       -0.00675
C          0.77494        0.67118        0.28256
C          2.08527       -0.00416       -0.12382
O         -0.53604       -1.31210        0.17718
H         -0.33807       -0.01395       -1.42534
H         -1.90200        0.85009        1.08117
H         -1.69497        1.82374       -0.40405
H         -2.62715        0.31178       -0.45672
H          0.78852        1.73185       -0.01544
H          0.66310        0.65151        1.37909
H          2.09546       -1.05695        0.18857
H          2.22472        0.02812       -1.21565
H          2.94620        0.49951        0.33867
H         -1.29130       -1.76938       -0.20792
