24
SEC-BUTYLBENZENE.gamout	Energy:    -388.9774361
C          2.12836        1.27315        0.87602
C          2.46422        2.12971        2.11914
C          2.67375        1.28060        3.38657
C          3.65585        3.04258        1.86342
C          0.78920        0.53670        0.95359
C          4.91767        2.52366        1.52560
C          3.52278        4.43602        1.96387
C          6.00560        3.36861        1.29309
C          4.60949        5.28642        1.73596
C          5.85628        4.75547        1.39657
H          2.93976        0.54642        0.70757
H          2.12581        1.93332       -0.00529
H          1.59657        2.78613        2.30091
H          3.52635        0.59539        3.26691
H          1.78589        0.67453        3.61434
H          2.87620        1.92103        4.25609
H          0.75483       -0.17217        1.79315
H          0.60615       -0.03749        0.03385
H         -0.04566        1.24365        1.07618
H          5.05696        1.44427        1.44299
H          2.55205        4.86144        2.22799
H          6.97570        2.94200        1.02992
H          4.47974        6.36696        1.82465
H          6.70652        5.41545        1.21553
