5
SILANE.gamout	Energy:    -291.7452955
Si        -0.45181        0.96960       -0.00150
H          1.03177        0.84512       -0.00262
H         -0.88780        1.71883       -1.21189
H         -0.88737        1.70210        1.21926
H         -1.06367       -0.38762       -0.01072
