55
STEARATE-1.gamout	Energy:    -856.4008530
C          1.21917       -0.03576       -0.04970
C          0.64979        0.73789        1.14390
C          2.74797       -0.06839       -0.08366
C         -0.88078        0.77419        1.18702
C         -1.44959        1.54392        2.38330
C         -2.98026        1.57337        2.42235
C         -3.55536        2.33996        3.61769
C         -5.08707        2.36572        3.65766
C         -5.66571        3.13181        4.85260
C         -7.19794        3.15787        4.89112
C         -7.77634        3.92509        6.08546
C         -9.30780        3.95338        6.12723
C         -9.87827        4.72563        7.32211
C        -11.40964        4.75929        7.37760
C        -11.96844        5.53726        8.57614
C        -13.50160        5.57269        8.65057
C        -14.04777        6.35716        9.84587
C        -15.61077        6.43037        9.97088
O        -16.27587        5.84336        9.08208
O        -16.02887        7.07872       10.96235
H          0.83922        0.41088       -0.98437
H          0.82812       -1.06740       -0.03009
H          1.03677        1.77196        1.12600
H          1.02801        0.29215        2.08062
H          3.16398        0.94995       -0.13548
H          3.12163       -0.62816       -0.95362
H          3.15419       -0.54536        0.82201
H         -1.26849       -0.25942        1.20345
H         -1.26005        1.22300        0.25235
H         -1.06609        2.57929        2.36766
H         -1.07087        1.09644        3.31897
H         -3.36195        0.53753        2.43614
H         -3.35705        2.02076        1.48607
H         -3.17475        3.37625        3.60238
H         -3.17560        1.89349        4.55329
H         -5.46729        1.32924        3.67235
H         -5.46645        2.81197        2.72176
H         -5.28614        4.16866        4.83901
H         -5.28880        2.68594        5.78988
H         -7.57870        2.12148        4.90600
H         -7.57694        3.60392        3.95488
H         -7.39578        4.96166        6.07066
H         -7.39859        3.47983        7.02282
H         -9.69153        2.91817        6.14661
H         -9.68940        4.39792        5.19124
H         -9.49382        5.76092        7.30101
H         -9.49311        4.28242        8.25770
H        -11.79490        3.72457        7.40126
H        -11.79687        5.20136        6.44245
H        -11.57864        6.57113        8.54518
H        -11.56679        5.09499        9.50645
H        -13.89696        4.54444        8.68473
H        -13.90879        6.00644        7.72261
H        -13.67485        7.39674        9.82253
H        -13.66676        5.93091       10.79109
