26
SUBERIC_ACID.gamout	Energy:    -613.4806458
C         35.07203       30.13079        0.02045
C         36.34085       29.28096        0.02085
C         36.04690       27.77810        0.02059
C         35.33146       31.61972        0.02108
C         37.31180       26.91494        0.02075
O         34.17709       32.32771        0.02044
O         36.41284       32.15696        0.02206
C         37.01785       25.41208        0.02072
C         38.28666       24.56225        0.02069
C         38.02724       23.07333        0.02099
O         39.18161       22.36533        0.02106
O         36.94586       22.53608        0.02115
H         34.43943       29.90893       -0.85519
H         34.43853       29.90839        0.89532
H         36.95087       29.54354        0.89901
H         36.95150       29.54369       -0.85684
H         35.43373       27.52222       -0.86083
H         35.43337       27.52201        0.90171
H         37.92506       27.17092        0.90208
H         37.92525       27.17091       -0.86046
H         34.40778       33.27024        0.02089
H         36.40753       25.14944       -0.85722
H         36.40751       25.14940        0.89863
H         38.91988       24.78454        0.89578
H         38.91957       24.78420       -0.85472
H         38.95091       21.42281        0.02124
