12
SUCCINIMIDE.gamout	Energy:    -360.2415942
O          2.29071       -0.64506        0.00227
O         -2.29075       -0.64493       -0.00227
N         -0.00003       -0.93155       -0.00000
C          0.76902        1.28876        0.00079
C         -0.76895        1.28881       -0.00078
C          1.17457       -0.18438        0.00117
C         -1.17458       -0.18431       -0.00117
H          1.21134        1.76970        0.88413
H          1.21315        1.76974       -0.88163
H         -1.21125        1.76978       -0.88412
H         -1.21304        1.76980        0.88165
H         -0.00006       -1.94600       -0.00001
