18
SULFANILIC_ACID.gamout	Energy:    -910.6271470
C          6.29520        1.89748       -0.59213
C          6.83434        0.60786       -0.38131
C          4.92123        2.09810       -0.60980
C          4.06134        1.01009       -0.41637
S          2.30895        1.26893       -0.43030
C          4.57235       -0.27505       -0.19093
C          5.94581       -0.47299       -0.17314
N          8.19090        0.41231       -0.35668
O          2.02517        2.68938       -0.22770
O          1.62261        0.24018        0.36471
O          1.96667        0.91078       -2.01662
H          6.96826        2.74396       -0.74132
H          4.50696        3.09363       -0.76494
H          3.89172       -1.11007       -0.02714
H          6.34751       -1.47206        0.00647
H          8.58285       -0.51424       -0.29429
H          8.82697        1.16262       -0.57673
H          1.13275        0.41261       -2.02730
