3
SULFUR_DIOXIDE.gamout	Energy:    -548.2614833
S          0.91290       -0.08478        0.00000
O          2.15408        0.70093        0.00000
O         -0.36288        0.64338        0.00000
