15
TARTRATE-1.gamout	Energy:    -606.1937966
O         -0.94982        1.61112        0.89459
O          0.96627       -1.52128        0.93851
O         -1.46064       -1.80076       -0.03023
O          2.02216        1.66824       -0.07890
O         -2.49301        0.14801       -0.55345
O          1.39565        0.02794       -1.46903
C         -0.72630        0.22774        1.03354
C          0.78058       -0.13464        0.90246
C         -1.64628       -0.55748        0.03782
C          1.39901        0.48922       -0.35468
H         -1.01064       -0.11016        2.04828
H          1.31265        0.31945        1.75435
H         -1.69881        1.62317        0.25574
H          0.13548       -1.91045        0.54301
H          2.33359        2.01688       -0.92861
