7
TCM-1.gamout	Energy:    -316.3140158
C          1.52091        0.04086        0.07539
C          2.89207       -0.25924        0.26151
N          4.02385       -0.50844        0.41565
C          0.59032       -1.00662       -0.12947
N         -0.17551       -1.87343       -0.29964
C          1.08422        1.38769        0.07150
N          0.72455        2.49999        0.06576
