24
TERT-BUTYLBENZENE.gamout	Energy:    -388.9749394
C          5.19277        0.92587        2.47932
C          3.86528        1.18961        2.12982
C          5.91086        1.83283        3.26174
C          3.21401        2.36530        2.54369
C          3.95215        3.26095        3.33715
C          1.77355        2.68531        2.09168
C          5.28027        3.00300        3.68982
C          1.04090        3.57053        3.12154
C          1.84732        3.43652        0.74050
C          0.94442        1.39612        1.90743
H          5.66345        0.00115        2.13953
H          3.34018        0.45721        1.51811
H          6.94700        1.62839        3.53718
H          3.49612        4.18303        3.69487
H          5.82005        3.72209        4.30921
H          1.01984        3.09234        4.11125
H          0.00306        3.73570        2.80021
H          1.50622        4.55885        3.23033
H          0.83570        3.67939        0.37956
H          2.34583        2.82383       -0.02366
H          2.41013        4.37511        0.84083
H          0.92856        0.80032        2.83105
H          1.33329        0.76222        1.09998
H         -0.09244        1.65144        1.64716
