27
TERT-BUTYLCYCLOPENTANE.gamout	Energy:    -353.3156907
C          3.43752       -1.51885        0.51086
C          3.24317       -0.02370        0.83355
C          4.60460       -1.99155        1.42353
C          3.65969        0.08273        2.30636
C          4.91894       -0.80729        2.38602
C          5.42782       -1.19166        3.80573
C          6.69644       -2.05841        3.66626
C          4.37621       -1.97013        4.62049
C          5.79865        0.09156        4.57703
H          2.51867       -2.07197        0.75786
H          3.63608       -1.69733       -0.55508
H          3.91765        0.59029        0.21474
H          2.21899        0.32729        0.64382
H          5.49284       -2.26481        0.83787
H          4.31364       -2.89253        1.98013
H          2.85765       -0.31973        2.94579
H          3.84502        1.11757        2.62496
H          5.73627       -0.22626        1.92338
H          7.46986       -1.53601        3.08303
H          7.11982       -2.28794        4.65514
H          6.48640       -3.01391        3.16559
H          3.47661       -1.36787        4.80849
H          4.06322       -2.89536        4.11706
H          4.78982       -2.25509        5.59893
H          6.54559        0.68236        4.02560
H          4.92224        0.73187        4.74886
H          6.22597       -0.15591        5.55992
