27
TERT-BUTYL_ISOBUTYL_ETHER.gamout	Energy:    -390.3955698
O         -0.29666        0.27456       -0.36310
C         -1.65006       -0.03747        0.01819
C          2.08660        0.03467       -0.39276
C          0.75819       -0.54106        0.10402
C         -1.85344        0.18898        1.52540
C         -2.49120        0.96003       -0.78442
C         -2.01608       -1.47802       -0.37145
C          2.35467        1.42557        0.19258
C          3.23217       -0.93958       -0.09278
H          1.98959        0.13346       -1.48709
H          0.65020       -1.57495       -0.26769
H          0.76604       -0.58777        1.20952
H         -1.56551        1.21300        1.79942
H         -2.91053        0.04401        1.78927
H         -1.26467       -0.51393        2.13041
H         -2.34441        0.79957       -1.86097
H         -2.18875        1.98798       -0.54375
H         -3.55937        0.84618       -0.55409
H         -1.46940       -2.21724        0.22950
H         -3.08900       -1.65235       -0.20996
H         -1.79498       -1.65721       -1.43300
H          3.28547        1.84923       -0.21141
H          2.45810        1.37430        1.28883
H          1.53234        2.11424       -0.03983
H          4.18485       -0.55483       -0.48394
H          3.05564       -1.92602       -0.54735
H          3.35517       -1.08447        0.99254
