16
TETRAHYDROPYRAN.gamout	Energy:    -271.4162150
C          1.57538        2.76977        2.35617
C          0.99973        1.89839        1.23063
C          3.03397        3.14108        2.05099
C          1.93308        0.72315        0.93487
C          3.84358        1.88963        1.70417
O          3.25212        1.15796        0.64163
H          1.53304        2.21029        3.30680
H          0.96690        3.67561        2.49764
H          0.88013        2.49792        0.31376
H          0.00301        1.51602        1.50213
H          3.49657        3.65353        2.90925
H          3.07343        3.83424        1.19533
H          1.59478        0.15106        0.06077
H          1.95769        0.03523        1.80457
H          3.93141        1.23817        2.59762
H          4.85846        2.14750        1.37330
