5
TETRABROMOMETHANE.gamout	Energy:  -10332.9540897
Br        20.00006       39.00986       -0.00012
C         20.00007       37.05079        0.00016
Br        21.84696       36.39730       -0.00012
Br        19.07694       36.39877        1.60052
Br        19.07627       36.39830       -1.59960
