29
TETRAETHYLSILANE.gamout	Energy:    -605.8474808
Si        -0.55348       -1.61342        0.04657
C          1.26996       -1.34401       -0.43437
C         -1.43866        0.06937        0.18518
C         -0.66676       -2.43479        1.76134
C         -1.36713       -2.77887       -1.22365
C          2.08921       -0.48225        0.54086
C         -1.36683        1.01214       -1.02706
C          0.03131       -3.79662        1.90908
C         -1.32710       -2.36784       -2.70497
H          1.30019       -0.89546       -1.44151
H          1.74439       -2.33387       -0.54640
H         -1.00538        0.57655        1.06469
H         -2.49240       -0.11876        0.45381
H         -1.73644       -2.53717        2.01404
H         -0.26106       -1.72705        2.50404
H         -2.41169       -2.94849       -0.90950
H         -0.87092       -3.75851       -1.11195
H          3.13011       -0.36587        0.20396
H          1.66497        0.52789        0.64480
H          2.11909       -0.92847        1.54628
H         -1.85761        1.97508       -0.81923
H         -0.32587        1.23048       -1.30926
H         -1.85844        0.58075       -1.91018
H         -0.38759       -4.54372        1.21842
H         -0.07657       -4.19893        2.92752
H          1.10916       -3.72455        1.69822
H         -0.29598       -2.20720       -3.05353
H         -1.77140       -3.14269       -3.34774
H         -1.88264       -1.43729       -2.88659
