17
TETRAMETHYLAMMONIUM+1.gamout	Energy:    -213.8644927
N         -1.74354        0.07465        0.12754
C         -0.66445       -0.21253        1.13018
H         -0.93585       -1.11069        1.69339
H         -0.57106        0.64124        1.80849
H          0.27948       -0.37409        0.60005
C         -3.04649        0.28980        0.83979
H         -3.82348        0.50705        0.10018
H         -2.93848        1.13308        1.52873
H         -3.30147       -0.61780        1.39530
C         -1.39069        1.30698       -0.65222
H         -0.44010        1.13954       -1.16785
H         -1.29871        2.15035        0.03894
H         -2.18370        1.50314       -1.38000
C         -1.87186       -1.08934       -0.80951
H         -2.66710       -0.88121       -1.53228
H         -2.11790       -1.98517       -0.23113
H         -0.92012       -1.23011       -1.33040
