22
TETRAMETHYLGUANIDINIUM+1.gamout	Energy:    -362.5338182
N          1.10362       -0.29589        0.39898
N         -1.07358        0.10327       -0.38709
N         -0.15995       -2.02800       -0.49107
C         -0.04216       -0.72775       -0.15700
C          2.02952       -1.21536        1.06448
C          1.62445        1.05584        0.16912
C         -1.36244        1.25044        0.47941
C         -2.11377       -0.21626       -1.36854
H          1.48550       -2.04324        1.53165
H          2.78420       -1.60997        0.36582
H          2.55353       -0.66464        1.85472
H          2.68268        0.97675       -0.11759
H          1.08423        1.53807       -0.64942
H          1.55800        1.67690        1.07321
H         -0.78975        1.17772        1.40759
H         -1.13924        2.20336       -0.01864
H         -2.43159        1.23521        0.73294
H         -2.50498        0.72457       -1.77412
H         -1.69808       -0.79664       -2.19906
H         -2.95128       -0.76552       -0.90953
H          0.65149       -2.61879       -0.60470
H         -1.06351       -2.45556       -0.63456
