17
TETRAHYDROFURFURYL_ALCOHOL.gamout	Energy:    -346.5486754
O          1.03528        0.28546       -0.93711
C          1.97731        0.02791        0.10344
C         -0.28048        0.45937       -0.39661
C          1.15602       -0.55110        1.25594
C         -0.15954        0.23330        1.12435
C         -1.21959       -0.52261       -1.10513
O         -2.57781       -0.33082       -0.74017
H          2.48023        0.96668        0.40132
H          2.73738       -0.66088       -0.28949
H         -0.62040        1.48810       -0.61671
H          0.98953       -1.62666        1.09689
H          1.63612       -0.42291        2.23501
H         -0.07893        1.19651        1.64837
H         -1.03246       -0.29449        1.52930
H         -1.07245       -0.43821       -2.19473
H         -0.96717       -1.55221       -0.81420
H         -2.90220        0.49886       -1.10836
