13
THIACYCLOPENTANE.gamout	Energy:    -555.0511372
C          1.78931        2.82663        2.52472
C          0.66360        1.94371        1.97319
C          2.90883        1.88414        2.97866
C          1.31423        0.95028        1.00569
S          2.95121        0.49908        1.74792
H          1.44598        3.46248        3.35479
H          2.16351        3.49013        1.72954
H         -0.11589        2.53424        1.46818
H          0.18411        1.39665        2.80003
H          2.70251        1.47058        3.97605
H          3.89051        2.37447        3.00078
H          1.48166        1.40582        0.01938
H          0.71824        0.03823        0.87166
