25
THYMOL.gamout	Energy:    -464.1251423
C         -5.46480        4.37726        1.00076
C         -4.27479        3.64447        0.42949
H         -5.28923        4.67022        2.04806
H         -6.36917        3.75584        0.97211
H         -5.67079        5.30065        0.43673
C         -3.02038        4.26711        0.36936
C         -1.90447        3.60767       -0.15707
C         -1.99958        2.29000       -0.64676
C         -4.37939        2.33483       -0.05615
C         -3.25994        1.68283       -0.58038
H         -5.34143        1.82011       -0.02494
H         -2.90858        5.29049        0.74066
H         -3.37220        0.66228       -0.95052
C         -0.78825        1.56293       -1.21716
C         -0.43569        0.31233       -0.39230
H         -0.26740        0.56786        0.66330
H          0.47874       -0.16199       -0.77978
H         -1.24120       -0.43678       -0.43293
C         -0.97514        1.22017       -2.70637
H          0.06237        2.25270       -1.14471
H         -0.06410        0.75357       -3.11113
H         -1.18861        2.12194       -3.29698
H         -1.80521        0.51318       -2.85675
O         -0.68179        4.22622       -0.21313
H         -0.74420        5.11671        0.14862
