36
TOLBUTAMIDE.gamout	Energy:   -1200.2818804
S          0.98707        2.02525        0.35882
O          1.01521        2.80936       -0.87448
O          1.42881        2.59192        1.64397
O         -1.20628        0.64823       -1.29201
N         -2.83857        1.05428        0.24977
N         -0.63184        1.59864        0.71738
C         -4.05914       -1.03675       -0.42870
C         -3.91947        0.48470       -0.55028
C         -4.43632       -1.53054        0.97100
C          1.83043        0.47308        0.07714
C         -4.54852       -3.05405        1.06116
C         -1.54824        1.06889       -0.20140
C          1.87856       -0.05735       -1.21342
C          2.45448       -0.16498        1.15453
C          3.18506       -1.93422       -0.35824
C          2.55729       -1.26029       -1.41714
C          3.12444       -1.36540        0.92697
C          3.91488       -3.23526       -0.58135
H         -3.11384       -1.50053       -0.75139
H         -4.82584       -1.36226       -1.15184
H         -4.85044        0.98174       -0.24000
H         -3.73489        0.75349       -1.59844
H         -5.39519       -1.07341        1.27259
H         -3.68519       -1.17954        1.69758
H         -3.05820        1.45745        1.14840
H         -3.59191       -3.53563        0.80661
H         -4.82711       -3.37662        2.07458
H         -5.31093       -3.43841        0.36622
H         -0.89837        1.88290        1.65326
H          1.38184        0.45803       -2.03287
H          2.42562        0.28657        2.14564
H          2.59905       -1.68127       -2.42336
H          3.61634       -1.86855        1.76210
H          3.48941       -4.03746        0.04128
H          3.86000       -3.55449       -1.62976
H          4.97776       -3.14291       -0.30907
