19
TOLUENEDIAMINE.gamout	Energy:    -381.7940287
C          7.28263        3.03340       -0.95488
C          6.36590        1.86876       -0.67717
C          6.85779        0.59920       -0.35667
C          4.95918        2.03151       -0.72473
C          6.02587       -0.48624       -0.08060
C          4.63044       -0.31701       -0.12021
N          3.77172       -1.39478        0.10593
C          4.11376        0.94595       -0.44727
N          4.41142        3.28664       -0.99291
H          8.33370        2.74457       -0.82727
H          7.17307        3.41522       -1.98627
H          7.08113        3.88012       -0.27703
H          7.94014        0.45351       -0.31675
H          6.45262       -1.46099        0.16315
H          2.82975       -1.17026        0.39779
H          4.16050       -2.17680        0.61587
H          3.03037        1.08713       -0.49104
H          4.97297        3.92905       -1.53465
H          3.43452        3.30643       -1.25265
