15
TOLUENE.gamout	Energy:    -271.2028687
C          5.00663        0.87339        2.13225
C          3.60328        1.42705        2.13747
C          2.87168        1.52891        0.94486
C          3.00336        1.86989        3.32358
C          1.58233        2.06096        0.93645
C          1.71246        2.40335        3.32201
C          0.99899        2.50138        2.12684
H          5.72126        1.62234        1.75428
H          5.32777        0.58699        3.14225
H          5.08605       -0.00946        1.48144
H          3.31971        1.18647        0.00991
H          3.55526        1.79460        4.26196
H          1.02910        2.13271       -0.00154
H          1.26144        2.74280        4.25680
H         -0.00814        2.91656        2.12188
