6
TRANS-1,2-DIIODOETHYLENE.gamout	Energy:    -672.6782236
C          2.27548        1.87552       -0.80277
C          2.29355        2.50123       -1.97367
I          0.90618        2.04474       -3.51261
I          3.66282        2.33196        0.73621
H          1.56948        1.09206       -0.52955
H          2.99954        3.28469       -2.24688
