15
TRANS-2-PENTENE.gamout	Energy:    -196.2652436
C          1.74750        2.04926        0.99716
C          1.06586        1.02715        1.91997
C          3.24657        1.92727        0.98106
C          4.11072        2.88137        1.34695
C          5.60642        2.75493        1.33869
H          1.36167        1.90998       -0.02863
H          1.46613        3.07055        1.29918
H          1.32459       -0.00305        1.63043
H          1.38187        1.16980        2.96401
H         -0.02924        1.12328        1.87589
H          3.64464        0.95944        0.64805
H          3.70961        3.84612        1.68221
H          6.06654        3.50987        0.67953
H          6.02543        2.91997        2.34539
H          5.92590        1.76091        0.99446
