27
TRANS,CIS-1,2,4-TRIMETHYLCYCLOHEXANE.gamout	Energy:    -353.3296799
C          5.20011        1.33196        4.61915
C          4.36458        1.10838        3.35183
C          4.99959        1.75083        2.09463
C          2.92568        1.61421        3.55899
C          6.40807        1.22158        1.79453
C          4.08831        1.57264        0.86722
C          2.01985        1.42186        2.33416
C          2.66065        2.07320        1.09999
C          0.60083        1.93788        2.58651
H          5.36124        2.40709        4.79724
H          4.68862        0.92165        5.50231
H          6.18421        0.84947        4.55706
H          4.31172        0.01816        3.16904
H          5.07963        2.83670        2.29395
H          2.95768        2.68930        3.81584
H          2.48335        1.10455        4.42977
H          6.39819        0.12635        1.67426
H          6.79480        1.65532        0.86071
H          7.12459        1.46596        2.58959
H          4.53538        2.09281        0.00582
H          4.06067        0.50114        0.59955
H          1.95732        0.33506        2.13744
H          2.04315        1.87624        0.20943
H          2.67023        3.16935        1.23653
H         -0.04531        1.77268        1.71153
H          0.13778        1.43273        3.44714
H          0.60770        3.01936        2.79690
