27
TRANS-1-METHYL-3-ETHYLCYCLOHEXANE.gamout	Energy:    -353.3254601
C         -0.06440        1.64250        0.01200
C          0.11256        3.16526       -0.03598
C          1.28266        0.89872        0.02221
C          0.98676        3.59182       -1.22370
C          2.35763        2.88062       -1.24222
C          2.14547        1.35395       -1.16883
C          3.33663        3.38226       -0.16006
C          1.09091       -0.62043        0.02669
C          3.79755        4.83080       -0.34118
H         -0.65853        1.35220        0.89269
H         -0.63898        1.31478       -0.87320
H         -0.86951        3.65823       -0.10032
H          0.56579        3.51046        0.90846
H          1.80842        1.17209        0.95410
H          1.11566        4.68405       -1.23113
H          0.45695        3.34143       -2.15824
H          2.83087        3.09776       -2.21557
H          3.12121        0.84273       -1.13878
H          1.65150        1.01912       -2.09801
H          2.89415        3.26457        0.84115
H          4.22151        2.72491       -0.17454
H          2.05616       -1.14688        0.06972
H          0.49295       -0.94548        0.89100
H          0.56892       -0.95207       -0.88497
H          4.54465        5.10360        0.41790
H          4.25693        4.97839       -1.33110
H          2.96517        5.54364       -0.25125
