18
TRANS-1,2-DIMETHYLCYCLOBUTANE.gamout	Energy:    -235.5173439
C          0.61849        1.54053       -0.27119
C          0.56621        0.00825       -0.02104
C          2.12359        0.00826        0.02104
C          2.07131        1.54054        0.27119
C         -0.15381       -0.88790       -1.01720
C          2.84361       -0.88791        1.01720
H         -0.12338        2.16920        0.24040
H          0.58690        1.76965       -1.34718
H          0.18291       -0.18138        0.99598
H          2.50690       -0.18137       -0.99598
H          2.81316        2.16919       -0.24046
H          2.10290        1.76967        1.34716
H         -1.23913       -0.70265       -1.01089
H          0.00352       -1.95311       -0.78610
H          0.21150       -0.70809       -2.04051
H          3.92893       -0.70265        1.01089
H          2.68627       -1.95311        0.78610
H          2.47829       -0.70810        2.04051
