21
TRANS-1,3-DIMETHYLCYCLOPENTANE.gamout	Energy:    -274.8025918
C          1.91383        2.62523        1.88253
C          0.44049        2.52044        1.49212
C          2.73094        1.31931        1.66206
C          2.70910        3.70288        1.11706
C          4.12419        1.73940        1.10631
C          4.16755        3.27043        1.29780
C          5.30166        0.98937        1.72739
H          1.96538        2.88197        2.95453
H          0.33835        2.26337        0.42576
H         -0.07471        1.74213        2.07491
H         -0.08887        3.47011        1.66247
H          2.21474        0.64987        0.95688
H          2.83247        0.75788        2.60340
H          2.50194        4.72073        1.47914
H          2.43919        3.67572        0.04686
H          4.13098        1.54444        0.02050
H          4.50106        3.50887        2.32291
H          4.86480        3.76449        0.60543
H          5.33277        1.14887        2.81707
H          5.22618       -0.09383        1.54951
H          6.26128        1.33039        1.31004
