21
TRANS-2-HEPTENE.gamout	Energy:    -274.7818109
C          2.88915        3.33177        1.63043
C          4.19127        3.14870        2.43703
C          5.02731        1.97191        2.00950
C          1.87587        2.19119        1.78132
C          6.25252        2.05000        1.47583
C          0.57024        2.44055        1.02220
C          7.09126        0.88334        1.04077
H          3.14380        3.45655        0.56446
H          2.41154        4.27426        1.94844
H          3.92689        3.04184        3.50477
H          4.79422        4.06667        2.35624
H          4.58444        0.97872        2.14969
H          1.65573        2.04517        2.85289
H          2.32352        1.24879        1.42776
H          6.70050        3.04241        1.33973
H         -0.13395        1.60578        1.15046
H          0.75681        2.55938       -0.05644
H          0.07217        3.35704        1.37539
H          7.34520        0.95258       -0.03018
H          6.57198       -0.07136        1.20763
H          8.04776        0.85304        1.58905
