21
TRANS-1,2-DIMETHYLCYCLOPENTANE.gamout	Energy:    -274.8031795
C          4.57030        2.57729        1.67345
C          3.17699        2.88316        1.12674
C          2.03542        2.01913        1.70599
C          2.69447        4.32137        1.40067
C          2.05753        0.54764        1.29813
C          0.76759        2.77593        1.26164
C          1.14926        4.28084        1.26493
H          5.32433        3.25397        1.24446
H          4.88120        1.54810        1.44280
H          4.59362        2.70070        2.76802
H          3.18594        2.72220        0.03188
H          2.10752        2.07886        2.80842
H          3.16398        5.05577        0.73097
H          2.98054        4.60109        2.42752
H          1.19920        0.00446        1.72098
H          2.97056        0.04111        1.64341
H          2.00966        0.44660        0.20198
H         -0.09825        2.55274        1.90099
H          0.49912        2.45280        0.24280
H          0.81546        4.77380        0.34100
H          0.66550        4.81638        2.09386
