6
TRANS-1,2-DIIODOETHYLENE.gamout	Energy:    -672.6757105
C          1.16525       -0.31715        0.39529
C          0.23612       -1.16425       -0.04334
I         -0.64305       -1.18449       -1.95845
I          2.04360        1.25920       -0.69131
H          1.55096       -0.39821        1.41337
H         -0.15003       -1.94860        0.61025
