24
TRANS-1-METHYL-2-ETHYLCYCLOPENTANE.gamout	Energy:    -314.0578630
C          5.55993        2.95893        1.65185
C          4.43295        2.19727        0.94957
C          3.17582        1.99861        1.80189
C          2.38447        3.27202        2.21173
C          2.10292        1.10828        1.14200
C          2.14977        4.26156        1.06159
C          1.06029        2.67867        2.75013
C          0.79476        1.38716        1.92331
H          5.87958        2.43847        2.56813
H          5.24801        3.97356        1.94088
H          6.44042        3.05623        1.00013
H          4.16054        2.71060        0.01326
H          4.80441        1.20481        0.64548
H          3.48622        1.50740        2.74276
H          2.91635        3.80603        3.01405
H          2.38823        0.04701        1.15058
H          1.99146        1.39250        0.08379
H          1.50817        5.08932        1.39690
H          1.64905        3.78636        0.20490
H          3.08962        4.70030        0.69844
H          0.23095        3.39692        2.68419
H          1.17395        2.42689        3.81486
H          0.54595        0.54714        2.58705
H         -0.06052        1.50755        1.24415
