16
TRANS-1,3-HEXADIENE.gamout	Energy:    -234.2980177
C          5.06777        0.29063        2.51478
C          4.55931        0.73334        1.35382
C          3.20211        1.25219        1.13352
C          2.43348        1.87944        2.04130
C          1.04116        2.38455        1.79372
C          0.89286        3.89977        2.00435
H          6.09939       -0.05668        2.58364
H          4.46810        0.24922        3.42707
H          5.19779        0.69574        0.46416
H          2.80196        1.12545        0.12063
H          2.84555        2.06609        3.04053
H          0.73223        2.11491        0.77174
H          0.34520        1.86533        2.47724
H          1.17957        4.18864        3.02704
H          1.53405        4.45808        1.30670
H         -0.14819        4.21674        1.84391
