59
TRI-(HEXYL)-AMMONIUM+1.gamout	Energy:    -763.5118421
N         -2.75892        0.33167       -0.51586
C         -1.43930       -0.41323       -0.45939
H         -3.05762        0.32944       -1.49890
C         -2.61269        1.78413       -0.10628
C         -3.84557       -0.37839        0.26914
H         -1.63622        2.12540       -0.46769
H         -2.58532        1.79319        0.99168
C         -3.72351        2.66534       -0.66272
C         -4.37274       -1.61655       -0.44499
H         -4.65425        0.34422        0.42584
H         -3.41252       -0.61749        1.24964
C         -0.52058       -0.08678       -1.63041
H         -1.67447       -1.48266       -0.45171
H         -0.98294       -0.16263        0.50787
C         -3.62613        4.10500       -0.13903
H         -4.71406        2.26305       -0.39898
H         -3.66619        2.67100       -1.76433
C          0.81278       -0.83935       -1.51573
H         -3.70161        4.09462        0.96170
C         -4.71180        5.02063       -0.71352
H         -2.63437        4.52264       -0.37896
H         -5.70538        4.59754       -0.48520
H         -4.63234        5.03430       -1.81388
C         -4.64014        6.45425       -0.17820
H         -4.73049        6.43487        0.92051
C         -5.71462        7.37070       -0.76311
H         -3.64295        6.87206       -0.39452
H         -6.72497        6.99367       -0.54198
H         -5.61925        7.44962       -1.85648
H         -5.64073        8.38529       -0.34777
H         -4.81909       -1.31995       -1.40989
C         -5.42853       -2.34492        0.39674
H         -3.55759       -2.32010       -0.67271
H         -6.25577       -1.65470        0.63055
H         -4.98358       -2.63459        1.36296
C         -5.98776       -3.59022       -0.29749
H         -6.42007       -3.29836       -1.26992
C         -7.04634       -4.32625        0.53118
H         -5.15980       -4.28289       -0.52614
H         -7.87117       -3.63263        0.76494
H         -6.60773       -4.61797        1.50025
C         -7.60375       -5.56691       -0.16726
H         -8.10526       -5.30551       -1.11149
H         -8.33820       -6.08293        0.46670
H         -6.80272       -6.28488       -0.40043
C          1.75912       -0.57816       -2.69173
H          1.25458       -0.85794       -3.63246
C          3.08217       -1.34501       -2.57859
H          1.96758        0.50299       -2.76500
H          2.86615       -2.42203       -2.48484
H          3.59015       -1.05295       -1.64440
C          4.01901       -1.11354       -3.76384
H          3.55000       -1.42626       -4.70918
H          4.95136       -1.68400       -3.65008
H          4.28899       -0.05101       -3.85999
H          0.62037       -1.92219       -1.44179
H          1.30997       -0.54939       -0.57539
H         -0.31439        0.99367       -1.68830
H         -1.01892       -0.36942       -2.57404
