31
TRI-N-PROPYLAMINE.gamout	Energy:    -409.7881325
C          0.37851       -0.08906       -0.26933
C          1.58470        0.82453       -0.03564
C          1.17834        2.28420        0.18902
N          2.30576        3.18996        0.37704
C          1.97464        4.58958        0.13437
C          3.04918        2.96021        1.62023
C          3.19525        5.48032       -0.11627
C          2.81137        6.93263       -0.41097
C          4.48185        2.45222        1.41472
C          5.22605        2.23422        2.73385
H          0.69278       -1.13014       -0.42843
H         -0.30612       -0.07352        0.59244
H         -0.19406        0.22700       -1.15479
H          2.26749        0.78214       -0.89800
H          2.15514        0.45706        0.83105
H          0.47024        2.33222        1.04849
H          0.61301        2.62570       -0.69113
H          1.32411        4.63359       -0.75167
H          1.38320        5.02148        0.97515
H          2.50127        2.24150        2.25494
H          3.08289        3.89172        2.21188
H          3.86097        5.45317        0.75972
H          3.76999        5.05824       -0.95508
H          3.70341        7.55356       -0.57432
H          2.18319        7.00520       -1.31191
H          2.24627        7.37292        0.42492
H          5.02569        3.17506        0.78802
H          4.44742        1.51661        0.83666
H          6.24970        1.87280        2.56121
H          4.71181        1.49347        3.36604
H          5.29467        3.16957        3.31088
