14
TRI-(METHYL)-AMMONIUM+1.gamout	Energy:    -174.6080166
N         -2.86398        0.37762       -0.05920
C         -1.36505        0.36647       -0.12412
H         -3.20523        0.21103       -1.01196
C         -3.39403        1.71446        0.36876
C         -3.39435       -0.73436        0.79705
H         -3.02085        2.48026       -0.31885
H         -3.04307        1.91846        1.38680
H         -4.48824        1.68589        0.34673
H         -3.02007       -1.68816        0.41158
H         -4.48847       -0.71551        0.76499
H         -3.04456       -0.57938        1.82413
H         -1.03445        1.15966       -0.80190
H         -1.03401       -0.60951       -0.49255
H         -0.97104        0.54237        0.88336
