5
TRICHLOROSILANE.gamout	Energy:   -1670.1429420
Cl         1.16339       -1.56369        0.17427
Cl        -1.93555       -0.22675        0.17450
Cl         0.77196        1.79017        0.17424
Si         0.00023        0.00032       -0.51477
H          0.00054        0.00038       -1.98633
