40
TRIDECANOATE-1.gamout	Energy:    -660.1069281
O          7.69626        0.56975       -0.02859
O          6.59748       -1.40601       -0.13129
C         -1.09094       -0.34323        0.02471
C         -2.38579        0.47175        0.03298
C          0.17798        0.51360        0.04223
C         -3.65484       -0.38301        0.01491
C          1.47684       -0.29527        0.01259
C         -4.94633        0.43854        0.00645
C          2.74280        0.56709        0.03466
C         -6.21871       -0.41243       -0.01039
C          4.04713       -0.23594       -0.01994
C         -7.51166        0.40813       -0.02675
C          5.31026        0.62498        0.00821
C         -8.77846       -0.45023       -0.04500
C          6.67084       -0.15481       -0.05704
H         -1.07842       -0.99363       -0.86731
H         -1.08249       -1.02287        0.89470
H         -2.39326        1.14944       -0.83870
H         -2.40046        1.12430        0.92345
H          0.16003        1.20270       -0.82078
H          0.16768        1.15558        0.94082
H         -3.65435       -1.05379        0.89201
H         -3.63685       -1.04245       -0.87066
H          1.49279       -0.98855        0.87217
H          1.48481       -0.93293       -0.88882
H         -4.94388        1.10749       -0.87201
H         -4.96138        1.09962        0.89066
H          2.70875        1.27272       -0.81578
H          2.73221        1.19381        0.94517
H         -6.22091       -1.07804        0.87068
H         -6.19860       -1.07697       -0.89214
H          4.06115       -0.86059       -0.92797
H          4.08374       -0.95011        0.81898
H         -7.52991        1.07166        0.85477
H         -7.50566        1.07352       -0.90707
H          5.33135        1.24427        0.92258
H          5.30457        1.34187       -0.83244
H         -8.82931       -1.10156        0.84182
H         -8.80522       -1.09949       -0.93440
H         -9.68767        0.16996       -0.05674
