26
TRIETHYL_ORTHOFORMATE.gamout	Energy:    -501.4075973
O          1.35055       -0.15660       -0.00356
O         -0.37798        1.29647       -0.13427
O         -0.59503       -0.61622        1.05366
C         -0.02949       -0.04465       -0.07655
C          1.86359       -1.48162       -0.10647
C         -0.00199        1.97622       -1.32825
C         -2.01599       -0.71596        1.04268
C          3.37604       -1.40740       -0.19814
C         -0.63470        3.35488       -1.31934
C         -2.45310       -1.52470        2.24933
H         -0.40305       -0.56973       -0.99068
H          1.43914       -1.97050       -1.00352
H          1.55094       -2.06749        0.77202
H         -0.34401        1.39509       -2.20548
H          1.09571        2.04563       -1.38256
H         -2.34191       -1.20517        0.10531
H         -2.45686        0.29289        1.06260
H          3.79852       -2.41952       -0.27115
H          3.68726       -0.83321       -1.08195
H          3.78981       -0.92096        0.69582
H         -0.36073        3.89955       -2.23394
H         -1.73012        3.28145       -1.27041
H         -0.28573        3.93236       -0.45231
H         -3.54869       -1.61387        2.26514
H         -2.02044       -2.53446        2.22153
H         -2.13096       -1.03384        3.17790
