20
TRIETHYLENEDIAMINE.gamout	Energy:    -344.8751596
C          0.69629       -0.36909        1.38089
C          0.61935        1.45489       -0.17261
N          1.25900        0.16853        0.13462
N         -1.25995       -0.16754       -0.13428
C         -0.92424        1.24868       -0.33905
C         -0.54373       -0.98363       -1.12465
C          1.00057       -0.77640       -0.96067
C         -0.84749       -0.57297        1.21700
H          1.20763       -1.31589        1.60993
H          0.92574        0.33234        2.19686
H          0.84663        2.15956        0.64123
H          1.07297        1.85811       -1.09030
H         -1.26308        1.54519       -1.34296
H         -1.49148        1.84903        0.38779
H         -0.82489       -2.03677       -0.97604
H         -0.88488       -0.69070       -2.12855
H          1.45337       -0.37541       -1.87960
H          1.51255       -1.72256       -0.72972
H         -1.13292       -1.62486        1.36558
H         -1.41268        0.02587        1.94664
