17
TRIFLUORO-ISOPROPYL_ACETATE.gamout	Energy:    -644.0015901
C          0.01882       17.17135       -0.07141
C          1.42277       17.69773        0.17140
O          1.30654       19.16072        0.16358
C          2.03657       17.25448        1.49200
C          2.36317       19.87834       -0.17377
C          2.00127       21.39229       -0.13211
O          3.45344       19.48250       -0.48658
F          3.07710       22.13786       -0.36998
F          1.07348       21.67524       -1.06341
F          1.50457       21.73295        1.06828
H         -0.37976       17.54899       -1.02181
H          0.03700       16.07390       -0.11249
H         -0.65646       17.47781        0.73950
H          2.08738       17.43081       -0.66147
H          3.04734       17.66285        1.61475
H          2.10584       16.15784        1.51462
H          1.41169       17.58062        2.33526
