14
TRIFLUOROETHYL_TRIFLUOROACETATE.gamout	Energy:    -902.1576568
C         35.03110       28.05652       -0.36037
O         36.02239       27.75992        0.48847
C         37.26747       28.44052        0.34513
C         33.79146       27.17961       -0.02597
O         35.05063       28.87092       -1.23575
C         38.34966       27.42768       -0.01148
F         34.10723       25.87860       -0.06941
F         33.34511       27.46686        1.20736
F         32.81590       27.41304       -0.89705
F         38.07978       26.80778       -1.17058
F         39.52589       28.06906       -0.14002
F         38.48885       26.48976        0.93673
H         37.20966       29.19813       -0.44568
H         37.51838       28.90185        1.30768
