5
TRIIODOMETHANE.gamout	Energy:    -931.7315709
I          1.77182        1.50287        0.06677
C         -0.13032        0.46275       -0.05307
I         -1.83836        1.80378        0.06579
I         -0.24787       -0.89683       -1.74489
H         -0.19219       -0.16576        0.83798
