14
TRIMETHYLSILANE.gamout	Energy:    -409.5591674
Si         0.00049       -0.00044       -0.44349
C         -1.40574        1.11862        0.14969
C          1.67222        0.65967        0.14934
C         -0.26725       -1.77771        0.14936
H          0.00111       -0.00029       -1.94190
H         -1.45233        1.15522        1.24979
H         -1.27648        2.15103       -0.21152
H         -2.38208        0.76083       -0.21291
H          1.72924        0.68298        1.24932
H          2.50184        0.03249       -0.21281
H          1.84704        1.68403       -0.21494
H         -1.22576       -2.17898       -0.21525
H          0.53070       -2.44476       -0.21280
H         -0.27772       -1.83875        1.24925
