12
TRIOXANE.gamout	Energy:    -343.1624448
C          3.03835        2.30157        2.74802
O          1.77518        2.38166        3.36392
O          2.91434        2.10907        1.35902
C          1.01296        1.23200        3.08309
C          2.14865        0.95990        1.08459
O          0.88287        1.03496        1.69531
H          3.61307        1.45961        3.18947
H          3.55551        3.25175        2.91142
H          0.01183        1.38133        3.49818
H          1.50020        0.34397        3.53917
H          2.68643        0.06068        1.45397
H          1.99876        0.90497        0.00227
