19
VANILLIN.gamout	Energy:    -534.6633497
C          0.79763        1.92418        1.08239
O          1.85952        1.83245        0.13232
C          3.07239        2.35061        0.48513
C          4.17053        1.49969        0.59714
C          3.26759        3.73935        0.66102
C          5.45349        1.99295        0.88678
O          2.18942        4.55162        0.51537
C          4.54651        4.23431        0.96461
C          6.59287        1.05885        0.99422
C          5.63169        3.37408        1.07626
O          7.73525        1.37989        1.25105
H          1.08392        1.43214        2.02609
H          0.52249        2.96983        1.27690
H         -0.05476        1.39584        0.64010
H          4.00866        0.43071        0.44404
H          2.43927        5.47554        0.63558
H          4.68038        5.31080        1.10105
H          6.33383       -0.01461        0.81754
H          6.62865        3.75129        1.30530
