20
VANILLIC_ACID.gamout	Energy:    -609.8418250
O          1.46183        0.28201        0.03700
O          1.75059        2.88844       -0.04809
O         -3.51091       -0.57664        0.37545
O         -4.47905        1.44673        0.38633
C          0.32011        1.00993        0.09230
C         -2.09122        1.32244        0.23920
C         -0.96388        0.47685        0.18862
C          0.48297        2.41819        0.04573
C         -1.92204        2.71021        0.19299
C         -0.63929        3.24886        0.09664
C         -3.46729        0.78023        0.33954
C          1.37865       -1.12995        0.07687
H         -1.11302       -0.59844        0.22522
H         -2.79908        3.35482        0.23259
H         -0.50090        4.33223        0.05982
H          2.40807       -1.49721        0.02049
H          0.91708       -1.47771        1.01592
H          0.80285       -1.52131       -0.77807
H          1.75288        3.85239       -0.07325
H         -4.44495       -0.82613        0.44038
