8
VINYLACETYLENE.gamout	Energy:    -154.5296719
C          1.76302        1.37858        0.15995
C          2.88046        2.26647        0.13148
C          4.16313        1.87524        0.04971
C          0.78895        0.65341        0.18658
H          2.64544        3.33508        0.18080
H          4.96998        2.60901        0.03226
H          4.43632        0.82040       -0.00152
H         -0.06048       -0.00062        0.20859
