9
VINYL_FORMATE.gamout	Energy:    -266.8228275
C         52.05339       11.02105        0.00000
O         50.85607       10.33921        0.00000
C         49.69219       11.03112       -0.00000
C         53.21480       10.37374       -0.00000
O         48.62720       10.49120        0.00000
H         51.96899       12.11155        0.00000
H         49.84097       12.13371        0.00000
H         54.14409       10.94066       -0.00000
H         53.26010        9.28463        0.00000
