3
WATER.gamout	Energy:     -76.3433514
O         -0.22980       -0.32464        0.00000
H          0.73423       -0.29106        0.00000
H         -0.51920        0.59553        0.00000
