9
1,1,2,3,3,3-HEXACHLORO-1-PROPENE.out Energy: -2874.56935616
Cl 1.07599122 1.36612800 -1.47494097
Cl -1.19310650 2.39575960 0.00000000
Cl 1.07599122 1.36612800 1.47494097
Cl -2.26539554 -0.43744817 0.00000000
Cl -0.52032240 -3.00583664 0.00000000
Cl 1.92708806 -1.46595257 0.00000000
C 0.06008740 1.11965958 0.00000000
C -0.53616709 -0.29798937 0.00000000
C 0.20241998 -1.43560876 0.00000000
