8
1,1,2-TRIFLUOROETHANE.gamout	Energy:    -377.0847022
C         -0.35875       -1.74218       -0.04320
C          0.54025       -0.52194       -0.00615
F          1.73582       -0.85700       -0.56094
F         -0.00026        0.48405       -0.73519
H          0.70854       -0.15529        1.02292
F         -1.51848       -1.48350        0.64400
H          0.16959       -2.59235        0.42122
H         -0.58808       -1.98456       -1.09543
