8
1,1,2,2-TETRAFLUOROETHANE.gamout	Energy:    -476.2168440
C         -1.16468        2.09838       -0.09334
C          0.28252        1.60637       -0.13017
F         -1.43113        2.66927        1.09776
F         -1.98585        1.03414       -0.26500
H         -1.34871        2.83103       -0.90035
F          1.10642        2.68154       -0.14732
F          0.54853        0.86675        0.96442
H          0.46130        0.99637       -1.03468
