27
1,1,2-TRIMETHYLCYCLOHEXANE.gamout	Energy:    -353.2973483
C          1.29935        1.46105        4.39413
C          1.88614        2.43844        3.35986
C          2.13020        1.81310        1.93987
C          3.16733        3.11606        3.90347
C          2.32041        2.94531        0.90642
C          0.91904        0.98046        1.48028
C          3.38595        0.90148        1.97440
C          4.38534        2.18202        3.91516
C          4.64342        1.58786        2.52527
H          0.29627        1.11240        4.10744
H          1.20125        1.96051        5.37214
H          1.92794        0.56866        4.54770
H          1.13061        3.23461        3.22246
H          3.40257        4.00524        3.29423
H          2.96939        3.49492        4.92121
H          1.40586        3.55680        0.82831
H          2.52653        2.52724       -0.09320
H          3.14818        3.62653        1.15194
H         -0.01144        1.57222        1.51842
H          0.77206        0.07856        2.09444
H          1.05574        0.64621        0.43813
H          3.57457        0.51214        0.95810
H          3.16554        0.01792        2.60006
H          5.27521        2.72499        4.27719
H          4.21789        1.36091        4.63608
H          5.47712        0.86582        2.56519
H          4.96761        2.38882        1.83732
