27
1,1,4-TRIMETHYLCYCLOHEXANE.gamout	Energy:    -353.2939152
C          2.30730        0.72235        2.41339
C          2.01835        0.90803        3.91438
C          1.26778        2.21493        4.20669
C          2.76923        2.02751        1.67701
C          3.21337        3.06997        2.72981
C          1.62088        2.59537        0.81748
C          3.95556        1.71174        0.74939
C          2.12783        3.42972        3.76309
C          0.83626        2.32713        5.67139
H          3.07332       -0.06254        2.29504
H          1.40166        0.33391        1.91578
H          1.44060        0.04490        4.28781
H          2.96452        0.90826        4.48672
H          0.34768        2.20108        3.59263
H          4.09529        2.66749        3.25803
H          3.56197        3.98478        2.21943
H          0.72119        2.81620        1.41260
H          1.92456        3.52894        0.31338
H          1.32733        1.87582        0.03466
H          3.68728        0.94264        0.00490
H          4.28305        2.60954        0.19817
H          4.82024        1.33463        1.32092
H          2.62333        3.87014        4.64642
H          1.46824        4.22026        3.36724
H          1.71087        2.29069        6.34425
H          0.30995        3.27729        5.86384
H          0.15908        1.50547        5.95898
