8
1,1,2,2-TETRACHLOROETHANE.gamout	Energy:   -1917.2995250
Cl        -0.56325        1.56942        0.91449
C         -0.57320        0.50944       -0.51718
C          0.57320       -0.50944       -0.51718
Cl         2.14080        0.34858       -0.70003
Cl         0.56325       -1.56942        0.91449
Cl        -2.14080       -0.34857       -0.70003
H         -0.46156        1.15343       -1.39770
H          0.46157       -1.15344       -1.39770
