8
1,1-DICHLOROETHANE.gamout	Energy:    -998.5093315
C          2.14615        0.89361        0.84565
C          1.62065        2.05652        1.65956
Cl        -0.05950        1.73377        2.23056
Cl         2.71115        2.40812        3.05285
H          2.18530       -0.01694        1.46101
H          3.15938        1.12237        0.48096
H          1.48583        0.71291       -0.01677
H          1.56631        2.98618        1.08152
