6
1,1-DIFLUOROETHYLENE.gamout	Energy:    -276.7360334
C          0.66492        1.26398        0.05591
C          1.98513        1.13875        0.09086
F          2.63688       -0.00758        0.06281
F          2.83885        2.14180        0.15805
H          0.21370        2.25510        0.08328
H          0.03822        0.37472       -0.00019
