8
1,1-DICHLORO-2,2,2-TRIFLUOROETHANE.out Energy: -1296.18541090
C -0.52245422 -0.41300903 0.00000000
C 0.01646390 1.02966750 0.00000000
F 1.34601091 1.07310340 0.00000000
F -0.43172529 1.67751162 1.08165720
F -0.43172529 1.67751162 -1.08165720
Cl -0.01255924 -1.26491653 1.47937278
Cl -0.01255924 -1.26491653 -1.47937278
H -1.61802879 -0.36677286 0.00000000
