30
1,2,4-TRIETHYLBENZENE.gamout	Energy:    -467.4724477
C          2.72942        0.80331        1.83702
C          2.15435        1.69920        2.94665
C          2.83377        3.05374        3.05484
C          2.23958        4.25910        2.61219
C          4.12428        3.09958        3.61012
C          0.85327        4.32771        1.99789
C          2.98044        5.44797        2.73805
C          4.86240        4.28286        3.73250
C          0.81353        4.01042        0.49440
C          4.26476        5.46796        3.27867
C          6.23355        4.28778        4.37495
C          6.19940        4.56092        5.88733
H          2.62358        1.27103        0.84510
H          2.21387       -0.17103        1.80915
H          3.80300        0.61111        1.99461
H          2.26151        1.17346        3.91197
H          1.07262        1.82104        2.78730
H          4.57234        2.16363        3.96297
H          0.45521        5.34462        2.15220
H          0.16323        3.65245        2.53062
H          2.52988        6.38686        2.40067
H          1.14904        2.98211        0.28609
H          1.47135        4.69154       -0.06967
H         -0.20789        4.11637        0.09259
H          4.80724        6.41559        3.35515
H          6.86274        5.05106        3.88517
H          6.72367        3.31626        4.19297
H          5.74407        5.54088        6.10437
H          7.21587        4.55618        6.31447
H          5.60543        3.79734        6.41567
