26
1,2,3-TRIMETHYLINDENE.gamout	Energy:    -465.0677315
C         -0.60993        0.28915       -1.52062
C         -0.52060        0.67872       -0.03468
C          2.07884        0.41072        0.33533
C          0.86815        1.09149        0.40647
C          3.24065        1.03530        0.81813
C         -1.36541        1.89077        0.34444
C         -2.84325        1.90852        0.10762
C          3.18002        2.32371        1.36214
C          0.80506        2.39148        0.95334
C         -0.59180        2.86068        0.90319
C          1.96191        3.01335        1.43534
C         -1.00511        4.20538        1.41846
H         -1.63769        0.00714       -1.80101
H         -0.29589        1.12714       -2.16364
H          0.04061       -0.57149       -1.74374
H         -0.85566       -0.19097        0.56695
H          2.13530       -0.59728       -0.08689
H          4.19877        0.51093        0.76866
H         -3.31491        2.83229        0.47222
H         -3.08367        1.81451       -0.96678
H         -3.33883        1.05827        0.61087
H          4.09316        2.79684        1.73382
H          1.92304        4.01960        1.86159
H         -2.08398        4.38485        1.30750
H         -0.75317        4.31639        2.48797
H         -0.47409        5.01437        0.88610
