21
1,2,4-TRIMETHYLBENZENE.gamout	Energy:    -349.7063633
C         -1.32656        1.73656       -0.11764
C         -2.22051        0.72516        0.22739
C          0.05932        1.60501        0.07998
C          0.54070        0.40487        0.64641
C         -0.37675       -0.60368        0.98771
C         -1.75616       -0.47373        0.79136
H         -3.29214        0.86811        0.05667
H         -1.71115        2.66264       -0.55617
H          0.00781       -1.53100        1.42677
C          0.98118        2.73723       -0.31522
H          0.40833        3.57737       -0.73578
H          1.55328        3.12741        0.54390
H          1.71697        2.42693       -1.07662
C          2.01197        0.15770        0.90253
H          2.64595        1.00238        0.60313
H          2.36546       -0.73142        0.35293
H          2.20148       -0.03297        1.97279
C         -2.71544       -1.57731        1.16982
H         -2.18660       -2.44328        1.59625
H         -3.28742       -1.93161        0.29522
H         -3.45102       -1.23262        1.91648
