10
1,2-ETHANEDITHIOL.out Energy: -875.92415061
S 1.79152207 0.00841174 -0.46004784
C 0.66817051 -0.37142018 0.94010470
C -0.66817051 0.37142018 0.94010470
S -1.79152207 -0.00841174 -0.46004784
H 2.16366997 1.23542322 -0.02451802
H 0.50220036 -1.45850820 0.88126048
H 1.19998331 -0.18050371 1.88647163
H -1.19998331 0.18050371 1.88647163
H -0.50220036 1.45850820 0.88126048
H -2.16366997 -1.23542322 -0.02451802
