21
1,2-EPOXY-3-PHENOXYPROPANE.gamout	Energy:    -498.7077596
O          2.79710       -4.11703        0.57174
O          0.48190       -1.38206       -0.03069
C          2.24917       -2.94155       -0.00451
C          3.21153       -2.86152        1.10169
C          0.76967       -2.74280        0.21989
C         -0.80370       -0.93914        0.01748
C         -1.00150        0.41096       -0.32161
C         -1.90267       -1.73338        0.37922
C         -2.28322        0.95536       -0.30371
C         -3.18615       -1.17054        0.39231
C         -3.38678        0.16780        0.05237
H          2.59512       -2.70297       -1.02111
H          4.25367       -2.58234        0.89647
H          2.85452       -2.62664        2.11392
H          0.19593       -3.39825       -0.46348
H          0.51179       -3.02833        1.25718
H         -0.13011        1.00878       -0.59781
H         -1.77437       -2.78113        0.65370
H         -2.42350        2.00613       -0.57193
H         -4.03684       -1.79678        0.67528
H         -4.39141        0.59720        0.06491
