11
1,2-DIIODOPROPANE.gamout	Energy:    -713.1617330
C          0.99465        0.05622        0.09959
C          0.56455       -1.11527       -0.74705
C          0.96564       -2.49133       -0.24983
I         -1.66965       -0.99629       -0.85516
I          3.18955        0.33447        0.07668
H          0.61812        1.01183       -0.27476
H          0.74069       -0.06481        1.15925
H          0.83758       -0.96259       -1.79849
H          0.61152       -2.66592        0.77806
H          2.06482       -2.58234       -0.25779
H          0.55358       -3.27836       -0.89594
