16
1,2-HEXADIENE.gamout	Energy:    -234.2666020
C          1.15356        0.40237       -0.19010
C          2.33300       -0.09460        0.09303
C          3.51240       -0.59094        0.38342
C          4.39991       -0.14214        1.52283
C          5.74791        0.42673        1.04875
C          6.66841        0.83192        2.20069
H          0.23620       -0.01921        0.23811
H          1.03961        1.25677       -0.86804
H          3.90629       -1.39161       -0.26040
H          4.59191       -1.00614        2.18728
H          3.86874        0.61021        2.12969
H          5.55746        1.29646        0.39553
H          6.25492       -0.32505        0.41636
H          6.20426        1.60614        2.83536
H          7.62376        1.23725        1.82983
H          6.90182       -0.02902        2.85010
