10
1,2-ETHANEDITHIOL.gamout	Energy:    -875.7357583
S         -0.00225        1.26560        2.25531
C          1.41847        2.16212        1.51626
C          2.79561        1.55956        1.79580
S          3.10996       -0.08096        1.03508
H          0.20607        1.67961        3.52856
H          1.21482        2.16990        0.43374
H          1.39222        3.21112        1.85536
H          3.58383        2.25906        1.47124
H          2.93290        1.40053        2.87716
H          3.27423        0.37128       -0.23159
