14
1,2-DICHLOROBUTANE.gamout	Energy:   -1077.0275953
C          2.10119        2.38888        1.72401
C          0.73394        1.77145        1.43681
C          3.27641        1.65225        1.08966
Cl         3.43255       -0.03470        1.79033
C          4.63396        2.31486        1.29835
Cl         4.72808        3.90640        0.43869
H          2.13800        3.42247        1.33920
H          2.27561        2.45219        2.81252
H         -0.06532        2.34978        1.92616
H          0.51969        1.75606        0.35494
H          0.68036        0.73617        1.80666
H          3.10786        1.49911        0.01321
H          4.82355        2.50364        2.36417
H          5.43763        1.68650        0.89553
