13
1,2-PENTADIENE.gamout	Energy:    -195.0101067
C          0.82731        2.01910        1.01869
C          1.15238        3.50097        1.19305
C          1.96959        1.06701        1.30533
C          3.18333        1.39721        1.68063
C          4.39826        1.71783        2.05500
H          0.47390        1.83002       -0.01259
H         -0.02236        1.74048        1.67041
H          1.47016        3.72268        2.22464
H          0.27250        4.12399        0.96748
H          1.97039        3.81267        0.52380
H          1.74761       -0.00307        1.18285
H          4.66718        1.80971        3.11431
H          5.19326        1.90484        1.32295
