29
1,2-BENZOFLUORENE.gamout	Energy:    -654.1811816
C          0.18282        2.03348        0.00021
C          2.43389       -1.60810        0.00031
C         -3.04725        1.31308        0.00010
C          1.56100        2.05805       -0.00010
C          3.75047        0.87320       -0.00042
C          3.81289       -1.55072        0.00032
C         -3.34921       -1.49951       -0.00029
C         -4.32128        0.73302        0.00016
C          4.47890       -0.29904        0.00001
C         -4.47298       -0.65991        0.00009
C         -0.71779       -1.59123       -0.00015
C         -0.48655        0.78316        0.00025
C          0.23174       -0.41299        0.00020
C         -1.92469        0.47746       -0.00016
C         -2.07949       -0.92817       -0.00037
C          1.65204       -0.41757        0.00005
C          2.32775        0.85423       -0.00036
H         -0.57716       -2.24021       -0.88410
H         -0.57768       -2.24050        0.88367
H         -0.38633        2.96666        0.00219
H          1.92926       -2.57762        0.00033
H         -2.93770        2.40091        0.00006
H          2.09390        3.01326       -0.00033
H          4.26067        1.84085       -0.00069
H          4.39819       -2.47427        0.00064
H         -3.47463       -2.58631       -0.00043
H         -5.20763        1.37329        0.00039
H          5.57166       -0.26703        0.00002
H         -5.47555       -1.09619        0.00011
