8
1,2-DICHLORO-1,1,2-TRIFLUOROETHANE.gamout	Energy:   -1295.8891252
C         -0.57563        1.27829       -0.11144
C          0.96701        1.27905       -0.08229
F          1.42224        0.09983       -0.55321
F         -1.03355        1.11338       -1.35259
Cl         1.60287        2.62363       -1.07164
H          1.30833        1.43222        0.95211
F         -1.02909        2.44448        0.36248
Cl        -1.19207       -0.04667        0.92690
