22
1,2-DIETHOXYETHANE.gamout	Energy:    -386.9674163
O          1.77631        0.24473        0.00385
O         -1.77629       -0.24471        0.00384
C          0.58001       -0.49109        0.00391
C         -0.57998        0.49112        0.00390
C          2.94497       -0.54368        0.00420
C         -2.94495        0.54371        0.00420
C          4.15664        0.37065        0.00374
C         -4.15661       -0.37062        0.00374
H          0.50576       -1.14754       -0.88820
H          0.50580       -1.14750        0.89605
H         -0.50574        1.14756       -0.88822
H         -0.50579        1.14753        0.89604
H          2.95971       -1.20824        0.89476
H          2.95967       -1.20909       -0.88573
H         -2.95968        1.20826        0.89476
H         -2.95965        1.20911       -0.88573
H          5.08803       -0.21755        0.00402
H          4.15154        1.01696       -0.88815
H          4.15156        1.01782        0.89500
H         -5.08800        0.21756        0.00403
H         -4.15152       -1.01694       -0.88814
H         -4.15153       -1.01781        0.89500
