15
1,2-PROPANEDIAMINE.gamout	Energy:    -229.5120782
C          3.23645        2.12239        1.69148
C          1.75033        2.06843        2.08723
C          1.01181        0.91649        1.39055
N          1.15164        3.38840        1.84862
N          3.39398        2.54572        0.29984
H          3.66845        1.11339        1.80350
H          3.75837        2.78248        2.41483
H          1.72071        1.89646        3.17865
H         -0.05715        0.91102        1.66251
H          1.09504        1.02304        0.29676
H          1.43432       -0.06515        1.66573
H          0.96578        3.49122        0.84822
H          0.23938        3.44671        2.30264
H          4.34103        2.35673       -0.02642
H          3.27367        3.55801        0.24310
