12
1,2-DIFLUOROBENZENE.gamout	Energy:    -430.1802137
F          1.78153        1.35001        0.00000
F          1.78185       -1.34953        0.00000
C          0.61355        0.70020       -0.00000
C          0.61372       -0.70000       -0.00000
C         -0.58807        1.40210       -0.00000
C         -0.58773       -1.40219       -0.00000
C         -1.79813        0.69893       -0.00000
C         -1.79796       -0.69932       -0.00000
H         -0.55637        2.49395        0.00000
H         -0.55576       -2.49403        0.00000
H         -2.74178        1.24929       -0.00008
H         -2.74147       -1.24991       -0.00008
