11
1,3-DIOXOLANE.out Energy: -268.14412906
C 0.73218126 0.21583016 0.94012326
C -0.73218126 -0.21583016 0.94012326
C 0.00000000 0.00000000 -1.20927696
O -1.13567809 0.10872897 -0.37939639
O 1.13567809 -0.10872897 -0.37939639
H 0.04423351 0.90264414 -1.85106568
H -0.04423351 -0.90264414 -1.85106568
H -1.36510881 0.33478908 1.65211690
H -0.82965417 -1.30208650 1.13806467
H 1.36510881 -0.33478908 1.65211690
H 0.82965417 1.30208650 1.13806467
