22
1,3-DIMETHYL-4-ETHENYLBENZENE.gamout	Energy:    -387.7398040
C          5.57099        2.44344        2.05324
C          4.34890        1.98115        1.54354
C          5.73690        3.73623        2.56937
C          3.23099        2.85425        1.54278
C          4.25487        0.57565        0.99443
C          3.39427        4.14727        2.07623
C          1.92712        2.41256        1.00878
C          4.61826        4.58401        2.57591
C          7.07516        4.20717        3.08591
C          0.95490        3.19871        0.52028
H          6.43026        1.76481        2.04614
H          5.23202        0.07208        1.03749
H          3.54023       -0.04252        1.56522
H          3.91892        0.56626       -0.05575
H          2.53023        4.81473        2.12179
H          1.75053        1.33155        1.00907
H          4.70440        5.59354        2.98936
H          6.96148        4.84979        3.97379
H          7.72561        3.36196        3.35847
H          7.61020        4.80117        2.32321
H          1.06206        4.28524        0.44513
H          0.01281        2.77312        0.16397
