24
1,3-DIMETHYLNAPHTHALENE.gamout	Energy:    -463.8836984
C          4.64736        3.92756        0.90490
C          4.76915        5.43660        0.90508
C          3.38347        3.24810        0.90494
C          5.81180        3.17414        0.90361
C          3.37645        1.80695        0.90336
C          2.12378        3.91900        0.90640
C          5.82040        1.75551        0.90207
C          4.60396        1.09612        0.90229
C          2.12842        1.11803        0.90319
C          0.93430        3.22112        0.90614
C          7.12471        0.99238        0.89903
C          0.93387        1.80328        0.90434
H          5.34088        5.78288        1.78208
H          5.30902        5.78619        0.00916
H          3.80257        5.95453        0.92310
H          6.77393        3.69773        0.90393
H          2.09454        5.00948        0.90803
H          4.57323        0.00167        0.90180
H          2.13797        0.02401        0.90181
H         -0.01523        3.76313        0.90736
H          7.19996        0.32117        1.77105
H          7.21918        0.36155       -0.00102
H          7.99067        1.67090        0.92327
H         -0.01471        1.25962        0.90400
