9
1,3-DICHLOROPROPENE.gamout	Energy:   -1036.5402514
C          2.59032        0.49530        0.18279
C          1.35515       -0.32865        0.31707
C          1.23222       -1.53331       -0.24834
Cl         2.25963        2.04649       -0.71955
Cl        -0.18054       -2.52944       -0.09021
H          2.97871        0.80582        1.16329
H          3.38223       -0.03051       -0.36741
H          0.53227        0.08632        0.90761
H          2.01674       -1.98972       -0.85873
