13
1,3-PROPANEDIOL.gamout	Energy:    -269.2044667
C         -1.80324        4.80288       -0.94444
C         -0.43044        4.20798       -0.67094
C          0.68984        5.23700       -0.69306
H         -0.21792        3.42822       -1.42122
H         -0.44204        3.71073        0.31342
O         -2.75680        3.76150       -0.89524
H         -1.80051        5.30575       -1.93566
H         -2.02381        5.59176       -0.19293
H         -3.62881        4.13712       -1.06792
O          1.90807        4.57189       -0.42803
H          0.48475        6.02607        0.06223
H          0.71078        5.74455       -1.68161
H          2.62081        5.22241       -0.44108
