16
1,3-BUTANEDIOL.gamout	Energy:    -308.4660344
C         -2.34790       -1.23346        0.32198
C         -2.19544        0.14406       -0.31054
H         -0.93907        1.01789        1.21971
O          1.43962        1.11670        0.05056
H          2.27691        0.69879       -0.18601
H         -3.30100       -1.68644        0.00838
H         -1.53127       -1.90950        0.02530
H         -2.35621       -1.14879        1.42098
C         -0.92495        0.88695        0.12394
O         -3.35228        0.88227        0.05674
H         -3.26235        1.77774       -0.29483
C          0.38734        0.23472       -0.28931
H         -0.93632        1.90263       -0.31359
H          0.37039        0.02559       -1.38091
H          0.50217       -0.74303        0.22131
H         -2.16232        0.01819       -1.41567
