14
1,4-DIBROMOBUTANE.gamout	Energy:   -5304.4823464
Br        87.00886       -0.08544        0.00010
C         85.30085        0.89380       -0.00011
C         85.50111        2.40199        0.00010
C         84.15271        3.14782       -0.00009
C         84.35297        4.65601        0.00012
Br        82.64494        5.63524       -0.00010
H         84.76132        0.55080       -0.89336
H         84.76098        0.55060        0.89286
H         86.09078        2.69632        0.88489
H         86.09113        2.69651       -0.88440
H         83.56305        2.85351       -0.88489
H         83.56268        2.85331        0.88440
H         84.89248        4.99902        0.89338
H         84.89284        4.99923       -0.89284
