12
1,4-DICHLORO-TRANS-2-BUTENE.gamout	Energy:   -1075.7981524
C          0.55357        0.17349        0.33484
C         -0.55348       -0.17339       -0.33485
C         -1.87676        0.49135       -0.16209
C          1.87685       -0.49125        0.16207
Cl        -3.12021       -0.67804        0.48032
Cl         3.12031        0.67814       -0.48031
H          0.51610        0.99190        1.06441
H         -0.51601       -0.99179       -1.06442
H         -1.83026        1.33039        0.54509
H         -2.27995        0.84878       -1.12066
H          2.28004       -0.84869        1.12065
H          1.83034       -1.33028       -0.54511
