17
1,5-DICHLOROPENTANE.gamout	Energy:   -1116.2799056
Cl        -0.02434       -0.07747       -0.00009
C          1.54272        0.82714        0.00011
C          1.32415        2.33333       -0.00012
C          2.64491        3.11466        0.00009
C          2.43410        4.63387       -0.00014
C          3.74766        5.40320        0.00011
Cl         3.47305        7.19176       -0.00009
H          2.09454        0.49659        0.89220
H          2.09492        0.49636       -0.89165
H          0.72468        2.60874       -0.88453
H          0.72428        2.60895        0.88396
H          3.24289        2.82470        0.88399
H          3.24333        2.82448       -0.88345
H          1.84616        4.93319       -0.88448
H          1.84572        4.93339        0.88385
H          4.35052        5.17865        0.89227
H          4.35094        5.17851       -0.89173
