16
1,5-HEXADIENE.gamout	Energy:    -234.2760237
C          2.13193        0.64116        3.38671
C          1.23286        1.82286        3.62720
C          0.68313        2.14755        4.80150
C          3.51839        1.01042        2.80903
C          3.46704        1.58997        1.42180
C          3.93856        2.78577        1.05557
H          1.63545       -0.05418        2.68188
H          2.26666        0.08407        4.32930
H          1.03512        2.46152        2.75629
H          0.03653        3.02366        4.90820
H          0.85515        1.54697        5.70207
H          4.12653        0.08679        2.78184
H          4.03300        1.70843        3.49118
H          3.00289        0.95027        0.65750
H          3.87474        3.13373        0.02025
H          4.41056        3.46179        1.77722
