15
1,6-HEPTADIYNE.out Energy: -271.22508667
C 0.13523163 0.02066394 0.00000000
C -0.72725277 -0.00666550 -1.27488836
C -0.72725277 -0.00666550 1.27488836
C 0.05442077 0.00116533 -2.51129164
C 0.05442077 0.00116533 2.51129164
C 0.71408736 0.00432537 -3.52750138
C 0.71408736 0.00432537 3.52750138
H 0.76723380 0.92305705 0.00000000
H 0.82113037 -0.84128187 0.00000000
H -1.37336873 -0.90355339 -1.26414222
H -1.41441448 0.85922718 -1.27620304
H -1.37336873 -0.90355339 1.26414222
H -1.41441448 0.85922718 1.27620304
H 1.29516842 0.00664557 -4.43014855
H 1.29516842 0.00664557 4.43014855
