19
1,6-HEPTADIENE.gamout	Energy:    -273.5303404
C          3.64197        1.41926        3.49182
C          3.52114        0.76871        2.10791
C          3.04933        1.71416        0.98438
C          4.78351        2.38315        3.70545
C          1.63577        2.19952        1.15966
C          5.83431        2.59922        2.90753
C          1.24229        3.47708        1.17001
H          2.69749        1.94029        3.73549
H          3.73138        0.62411        4.25752
H          4.48613        0.31486        1.82347
H          2.80876       -0.07259        2.17904
H          3.11355        1.16288        0.02696
H          3.72921        2.57697        0.89581
H          4.72712        2.95107        4.64416
H          0.87551        1.41428        1.28119
H          6.61401        3.31470        3.18476
H          5.96921        2.07883        1.95449
H          1.95920        4.29786        1.05632
H          0.18961        3.75090        1.28809
