21
1,8-NONADIYNE.out Energy: -349.79664504
C 0.64169968 0.00003351 0.00161364
C -0.19805542 -1.27959156 -0.00125331
C -0.19815944 1.27957231 -0.00569811
C 0.66187178 -2.55784509 0.01200675
C 0.66178549 2.55782378 -0.00765689
C -0.11931855 -3.79472932 0.00343272
C -0.11942761 3.79469405 -0.00200541
C -0.77941361 -4.81080911 -0.00456188
C -0.77946645 4.81082756 0.00442762
H 1.30394136 0.00211010 0.88747593
H 1.31475303 -0.00200679 -0.87604452
H -0.87007073 -1.29008110 0.87407582
H -0.85301322 -1.29655297 -0.88927822
H -0.85927012 1.29005709 -0.88930947
H -0.86404123 1.29641141 0.87415001
H 1.34048641 -2.55503785 -0.86038939
H 1.31736464 -2.55216955 0.90186822
H 1.33229498 2.55241536 0.87094665
H 1.32541767 2.55488219 -0.89146372
H -1.36066326 -5.71333832 -0.01183169
H -1.36057911 5.71338202 0.01016344
