26
1-(3-METHOXYPROPOXY)PROPAN-1-OL.gamout	Energy:    -501.3563651
O         -0.91086       -0.35582        0.17773
O          3.85289       -0.44128        0.25478
O         -2.41032        1.43623        0.27578
C          1.47197       -0.37174        0.21392
C          0.22410        0.35634       -0.26266
C         -2.15111        0.15194       -0.24332
C         -3.22281       -0.80501        0.25718
C          2.76192        0.30673       -0.22204
C         -4.63302       -0.43215       -0.19337
C          5.10132        0.08922       -0.09542
H          1.45000       -0.44160        1.31374
H          1.45945       -1.40480       -0.17076
H          0.22068        0.43233       -1.37337
H          0.21051        1.39123        0.13441
H         -2.15976        0.19711       -1.35753
H         -2.94803       -1.81587       -0.08524
H         -3.15134       -0.81377        1.35807
H          2.80127        0.38544       -1.33161
H          2.80545        1.34806        0.16777
H         -4.90145        0.57462        0.16086
H         -4.72045       -0.43736       -1.29371
H         -5.37498       -1.14451        0.20036
H         -2.06109        2.10193       -0.32844
H          5.87794       -0.56770        0.32400
H          5.25016        1.11289        0.30809
H          5.23984        0.13940       -1.19596
