8
1-BROMO-2-CHLOROETHANE.gamout	Energy:   -3112.2396970
Br        -1.57499        0.02656        0.00000
C          0.28853       -0.61181       -0.00000
C          1.23933        0.56601       -0.00000
Cl         2.94567       -0.04203        0.00000
H          0.40881       -1.23287        0.89628
H          0.40881       -1.23287       -0.89628
H          1.11312        1.19017       -0.89443
H          1.11312        1.19017        0.89443
