18
1-BROMONAPHTHALENE.gamout	Energy:   -2958.4987583
Br        -2.18089       -0.36081       -0.00001
C         -0.50417        0.56560        0.00000
C         -0.53096        1.94510       -0.00041
C          0.68223        2.67626       -0.00035
C          1.89227        2.01808        0.00011
C          1.94625        0.59627        0.00029
C          3.18923       -0.09835       -0.00001
C          3.23592       -1.47591       -0.00046
C          2.03294       -2.22476       -0.00035
C          0.80926       -1.58747        0.00027
C          0.72407       -0.16656        0.00136
H         -1.48694        2.47170       -0.00085
H          0.64500        3.76866       -0.00055
H          2.83001        2.58030        0.00010
H          4.11253        0.48784       -0.00006
H          4.19890       -1.99329       -0.00088
H          2.07460       -3.31715       -0.00084
H         -0.11286       -2.17058        0.00064
