26
1-BROMOOCTANE.gamout	Energy:   -2888.3763003
C         -0.07254       -0.10524        0.00003
C          1.23204        0.69327       -0.00017
C          1.02122        2.21071        0.00013
C          2.32188        3.02096       -0.00007
C          2.10021        4.53632        0.00019
C          3.39500        5.35713       -0.00003
C          3.14083        6.87140        0.00018
C          4.43018        7.67594       -0.00010
Br         4.09222        9.62099        0.00017
H          0.11576       -1.19116       -0.00019
H         -0.68499        0.12502        0.88862
H         -0.68545        0.12531       -0.88816
H          1.83648        0.41095       -0.88194
H          1.83695        0.41067        0.88118
H          0.41662        2.49453        0.88225
H          0.41619        2.49480       -0.88161
H          2.92688        2.73904       -0.88235
H          2.92732        2.73877        0.88182
H          1.49509        4.81689        0.88236
H          1.49468        4.81712       -0.88164
H          4.00190        5.08309       -0.88306
H          4.00234        5.08288        0.88264
H          2.54012        7.14630        0.88433
H          2.53966        7.14645       -0.88361
H          5.04084        7.48790       -0.89377
H          5.04134        7.48772        0.89319
