17
1-BROMOPENTANE.gamout	Energy:   -2770.6077980
Br        -2.02649        0.08557        0.00000
C         -0.24606       -0.77130       -0.00000
C          0.88394        0.24618       -0.00000
C          2.26546       -0.42370       -0.00000
C          3.42398        0.58118       -0.00000
C          4.80368       -0.07868        0.00000
H         -0.23126       -1.40958        0.89363
H         -0.23126       -1.40958       -0.89363
H          0.78410        0.89986       -0.88334
H          0.78410        0.89986        0.88334
H          2.35660       -1.08418        0.88251
H          2.35660       -1.08418       -0.88251
H          3.32768        1.24135       -0.88114
H          3.32767        1.24136        0.88114
H          5.60964        0.67281        0.00000
H          4.94436       -0.71685        0.88886
H          4.94437       -0.71686       -0.88885
