50
1-BROMOHEXADECANE.gamout	Energy:   -3202.4267386
C          0.63999        0.11356        0.00057
C          2.03625        0.74490        0.00041
C         -0.49417        1.14011        0.00079
C          3.18611       -0.26994        0.00019
C          4.57920        0.37150       -0.00002
C          5.73785       -0.63436       -0.00021
C          7.12558        0.01956       -0.00037
C          8.29305       -0.97627       -0.00051
C          9.67574       -0.31136       -0.00058
C         10.84979       -1.29951       -0.00061
C         12.22901       -0.62707       -0.00059
C         13.40696       -1.61093       -0.00055
C         14.78380       -0.93288       -0.00046
C         15.96349       -1.91527       -0.00031
C         17.33732       -1.22596       -0.00011
C         18.47906       -2.23087        0.00016
Br        20.24887       -1.35663        0.00048
H          0.53810       -0.54624       -0.88100
H          0.53838       -0.54639        0.88207
H          2.13530        1.40592        0.88249
H          2.13504        1.40604       -0.88162
H         -1.48144        0.65141        0.00089
H         -0.44632        1.79247        0.88949
H         -0.44656        1.79257       -0.88786
H          3.08726       -0.93090       -0.88180
H          3.08759       -0.93099        0.88217
H          4.67460        1.03307        0.88186
H          4.67441        1.03313       -0.88190
H          5.64506       -1.29616       -0.88222
H          5.64538       -1.29627        0.88176
H          7.21514        0.68191        0.88153
H          7.21506        0.68198       -0.88224
H          8.20588       -1.63878       -0.88253
H          8.20609       -1.63887        0.88149
H          9.76054        0.35156        0.88135
H          9.76055        0.35161       -0.88250
H         10.76670       -1.96249       -0.88265
H         10.76681       -1.96252        0.88144
H         12.31089        0.03601        0.88145
H         12.31103        0.03609       -0.88257
H         13.32615       -2.27398       -0.88272
H         13.32614       -2.27397        0.88164
H         14.86450       -0.27035        0.88174
H         14.86476       -0.27037       -0.88267
H         15.88722       -2.57699       -0.88332
H         15.88709       -2.57695        0.88272
H         17.43080       -0.57197        0.88394
H         17.43120       -0.57204       -0.88419
H         18.47340       -2.86906       -0.89380
H         18.47313       -2.86897        0.89419
