14
1-BROMO-2-METHYLPROPANE.out Energy: -2731.61169974
Br 0.06001106 1.36402905 0.00000000
C -0.37609251 -1.56660857 0.00000000
C -1.11853970 -0.23034496 0.00000000
C 0.45153795 -1.78993376 1.27059127
C 0.45153795 -1.78993376 -1.27059127
H -1.19576407 -2.31357923 0.00000000
H -1.74411902 -0.11362967 -0.89451006
H -1.74411902 -0.11362967 0.89451006
H 1.28043567 -1.06736044 1.33274037
H 0.88331174 -2.80325689 1.27930297
H -0.16219571 -1.67669403 2.17904978
H 1.28043567 -1.06736044 -1.33274037
H 0.88331174 -2.80325689 -1.27930297
H -0.16219571 -1.67669403 -2.17904978
