11
1-BROMO-3-CHLOROPROPANE.out Energy: -3151.78972089
Br 0.16360365 2.06185260 -0.03088508
Cl 0.57670137 -2.98807037 -0.08814491
C -0.88331013 -0.62913696 -0.28507569
C 0.11635758 0.17729621 0.53092453
C -0.97751489 -2.08618259 0.15328696
H -1.88899953 -0.18561092 -0.18203098
H -0.62029929 -0.57993073 -1.35373749
H -0.13880140 0.18957148 1.59932543
H 1.13728922 -0.20376855 0.41098811
H -1.22726701 -2.17680152 1.22011516
H -1.73968294 -2.61963745 -0.42999339
