30
1-DECENE.gamout	Energy:    -392.5291504
C          5.60344       -0.21107       -0.57596
C          4.57265       -0.27799        0.27198
C          3.30822        0.53150        0.18563
C          2.03125       -0.32536        0.16298
C          0.74140        0.49783        0.09843
C         -0.53442       -0.35019        0.07477
C         -1.82520        0.47248        0.01075
C         -3.10171       -0.37412       -0.01521
C         -4.39272        0.44871       -0.08142
C         -5.66283       -0.40326       -0.10972
H          6.49373       -0.83389       -0.44719
H          5.59857        0.47162       -1.43328
H          4.62769       -0.98305        1.11370
H          3.25748        1.21340        1.05725
H          3.34047        1.17929       -0.70821
H          2.07640       -1.01482       -0.69968
H          2.00947       -0.96946        1.06203
H          0.70542        1.18744        0.96293
H          0.76572        1.14462       -0.79877
H         -0.49700       -1.03918       -0.78997
H         -0.55878       -0.99797        0.97134
H         -1.86229        1.16137        0.87575
H         -1.79994        1.12041       -0.88574
H         -3.06457       -1.06283       -0.88058
H         -3.12879       -1.02277        0.88096
H         -4.42956        1.13707        0.78316
H         -4.36339        1.09638       -0.97718
H         -6.56985        0.22102       -0.15936
H         -5.67527       -1.07620       -0.98424
H         -5.74328       -1.03529        0.79115
