39
1-DODECANOL.gamout	Energy:    -547.3906235
C          6.34201       -0.46058       -0.00000
C          5.07153        0.37747       -0.00000
C          3.78879       -0.45665        0.00000
C          2.50738        0.38344        0.00000
C          1.22188       -0.44974        0.00000
C         -0.06191        0.38642        0.00000
C         -1.34621       -0.44902        0.00000
C         -2.63150        0.38485        0.00000
C         -3.91461       -0.45248        0.00000
C         -5.20105        0.37928        0.00000
C         -6.48378       -0.45924       -0.00000
C         -7.76458        0.37770       -0.00000
O          7.45532        0.41059       -0.00001
H          6.34518       -1.12598        0.89009
H          6.34517       -1.12598       -0.89009
H          5.09769        1.04066        0.88294
H          5.09769        1.04066       -0.88294
H          3.78339       -1.12452       -0.88218
H          3.78340       -1.12452        0.88219
H          2.51035        1.05143        0.88164
H          2.51034        1.05143       -0.88163
H          1.22091       -1.11821       -0.88169
H          1.22091       -1.11821        0.88169
H         -0.06161        1.05479        0.88166
H         -0.06161        1.05479       -0.88165
H         -1.34580       -1.11751       -0.88164
H         -1.34580       -1.11751        0.88164
H         -2.63230        1.05323        0.88168
H         -2.63230        1.05324       -0.88167
H         -3.91314       -1.12092       -0.88170
H         -3.91314       -1.12092        0.88170
H         -5.20361        1.04781        0.88185
H         -5.20361        1.04781       -0.88184
H         -6.48001       -1.12717       -0.88124
H         -6.48001       -1.12717        0.88123
H         -7.81788        1.02926        0.88888
H         -7.81788        1.02927       -0.88888
H         -8.66466       -0.25851       -0.00001
H          8.26117       -0.12055       -0.00001
