58
1-EICOSYNE.gamout	Energy:    -783.8465224
C        174.07025       10.02370        0.00171
C        172.76085        9.22240        0.00116
C        172.95248        7.69980        0.00156
C        173.86848       11.54494        0.00116
C        171.63706        6.90808        0.00079
C        175.17347       12.35355        0.00136
C        171.81573        5.38361        0.00106
C        174.96499       13.87416        0.00072
C        170.49346        4.60251        0.00008
C        176.26752       14.68698        0.00060
C        170.65833        3.07630        0.00031
C        176.05417       16.20699       -0.00015
C        169.32911        2.30692       -0.00079
C        177.35330       17.02082       -0.00052
C        169.47917        0.78007       -0.00064
C        177.10516       18.54277       -0.00136
C        168.14426        0.02470       -0.00182
C        178.33027       19.34325       -0.00181
C        168.29645       -1.49764       -0.00167
C        179.35206       19.99492       -0.00222
H        174.67268        9.73502        0.88369
H        174.67362        9.73455       -0.87950
H        172.15910        9.51323       -0.88065
H        172.15801        9.51362        0.88211
H        173.55282        7.40702        0.88361
H        173.55394        7.40670       -0.87963
H        173.26476       11.83165       -0.88065
H        173.26401       11.83230        0.88227
H        171.03769        7.20399       -0.88097
H        171.03641        7.20414        0.88164
H        175.77763       12.06804        0.88321
H        175.77823       12.06747       -0.87990
H        172.41340        5.08558        0.88317
H        172.41474        5.08537       -0.88010
H        174.36009       14.15843       -0.88109
H        174.35967       14.15926        0.88199
H        169.89675        4.90369       -0.88171
H        169.89524        4.90376        0.88084
H        176.87290       14.40462        0.88241
H        176.87319       14.40386       -0.88078
H        171.25333        2.77294        0.88244
H        171.25481        2.77277       -0.88078
H        175.44961       16.49116       -0.88214
H        175.44948       16.49214        0.88143
H        168.73504        2.61324       -0.88262
H        168.73345        2.61322        0.87998
H        177.96323       16.75869        0.88174
H        177.96331       16.75775       -0.88244
H        170.07036        0.46912        0.88162
H        170.07190        0.46902       -0.88185
H        176.49688       18.81855       -0.88269
H        176.49680       18.81960        0.87960
H        167.55352        0.33547       -0.88342
H        167.55187        0.33547        0.87868
H        167.31511       -1.99778       -0.00255
H        168.84730       -1.84834        0.88779
H        168.84888       -1.84840       -0.89013
H        180.25548       20.57463       -0.00258
