20
1-FLUOROHEXANE.gamout	Energy:    -335.8542246
C         68.98645       10.02219        0.00011
C         67.69073        9.20422       -0.00011
C         67.92454        7.69106        0.00009
C         68.76137       11.53748       -0.00010
C         66.63555        6.88844       -0.00012
C         70.05901       12.34723        0.00012
F         66.91408        5.53261        0.00012
H         69.59174        9.74285        0.88288
H         69.59217        9.74266       -0.88232
H         67.08621        9.48435       -0.88332
H         67.08578        9.48453        0.88275
H         68.51625        7.39807        0.88549
H         68.51667        7.39790       -0.88498
H         68.15526       11.81411       -0.88257
H         68.15484       11.81429        0.88201
H         66.02711        7.11527       -0.89554
H         66.02668        7.11551        0.89496
H         69.86071       13.43134       -0.00002
H         70.67333       12.12252        0.88883
H         70.67377       12.12233       -0.88824
