11
1-FLUOROPROPANE.gamout	Energy:    -218.0854025
C         34.99899       10.02602        0.00010
C         33.69304        9.24979       -0.00011
C         33.90483        7.73564        0.00010
F         34.74985       11.38665       -0.00010
H         35.60173        9.78443        0.89579
H         35.60212        9.78424       -0.89528
H         33.10889        9.55586       -0.88536
H         33.10847        9.55606        0.88480
H         32.94232        7.20068       -0.00008
H         34.46640        7.40353        0.88979
H         34.46681        7.40337       -0.88927
