21
1-HEXANETHIOL.gamout	Energy:    -634.7463652
C         35.01038       10.02677       -0.00012
C         36.30723        9.21055        0.00009
C         36.07659        7.69482       -0.00012
C         35.23459       11.54247        0.00012
C         37.38049        6.89739        0.00009
C         33.93711       12.35253       -0.00009
S         37.01389        5.09013       -0.00019
H         34.40493        9.74740       -0.88291
H         34.40450        9.74719        0.88231
H         36.91191        9.48867        0.88357
H         36.91234        9.48888       -0.88301
H         35.47841        7.41166       -0.88496
H         35.47799        7.41147        0.88436
H         35.84066       11.81912        0.88260
H         35.84114       11.81934       -0.88195
H         37.97808        7.14339        0.89255
H         37.97851        7.14360       -0.89203
H         34.13559       13.43666        0.00008
H         33.32269       12.12791       -0.88878
H         33.32229       12.12772        0.88828
H         38.30089        4.67095        0.00012
