31
1-HEXYL-2-PYRROLIDONE.gamout	Energy:    -521.7922185
O          1.95399       -0.13079        1.97983
N          1.55763       -0.44943       -0.27143
C          2.06597        0.02497       -1.54889
C          0.74120       -1.64215       -0.14163
C          2.71817        1.37596       -1.19311
C         -0.71387       -1.47515       -0.60122
C          3.12427        1.20656        0.27567
C         -1.50204       -0.41624        0.17466
C          2.15236        0.15428        0.81539
C         -2.96996       -0.31125       -0.25082
C         -3.76317        0.75390        0.51347
C         -5.22965        0.84809        0.08803
H          1.25978        0.13387       -2.29337
H          2.80194       -0.69099       -1.97064
H          1.21416       -2.46775       -0.70754
H          0.76931       -1.91170        0.92580
H          1.96930        2.17945       -1.28500
H          3.55359        1.62589       -1.86342
H         -1.20766       -2.45803       -0.49419
H         -0.74528       -1.24488       -1.68273
H          3.07624        2.12429        0.87914
H          4.14580        0.80006        0.38261
H         -1.44447       -0.64028        1.25549
H         -1.01310        0.56660        0.05020
H         -3.46028       -1.29432       -0.11795
H         -3.02312       -0.09645       -1.33543
H         -3.70598        0.54060        1.59665
H         -3.27599        1.73696        0.37761
H         -5.32151        1.09617       -0.98334
H         -5.75697       -0.10753        0.25001
H         -5.76813        1.62430        0.65574
