19
1-HEPTYNE.gamout	Energy:    -273.5155715
C          5.88539        1.73226        0.90771
C          4.47492        1.13792        0.90728
C          3.37029        2.21294        0.90954
C          6.99674        0.67695        0.89305
C          2.01359        1.66430        0.90727
C          8.40545        1.27368        0.90309
C          0.89659        1.19370        0.90549
H          6.00363        2.39845        0.03226
H          6.01039        2.38025        1.79589
H          4.34073        0.48796        0.02495
H          4.34104        0.48598        1.78817
H          3.49408        2.86606        1.79290
H          3.49489        2.87052        0.02963
H          6.87132        0.00874        1.76467
H          6.87328        0.03346        0.00269
H          8.57279        1.89079        1.80228
H          9.17789        0.48800        0.89052
H          8.57338        1.92019        0.02500
H         -0.09367        0.77869        0.90355
