18
1-HEXENE.gamout	Energy:    -235.5037019
H         -2.35752       -0.97989       -0.00000
H         -2.58210       -2.82720       -0.00000
C         -1.89909       -1.97300       -0.00000
H         -0.18957       -3.17977       -0.00000
C         -0.57409       -2.15067       -0.00000
H          1.14713       -1.25342        0.87597
H          1.14713       -1.25342       -0.87597
C          0.48977       -1.08452        0.00000
H         -0.63650        0.53784       -0.88356
H         -0.63650        0.53784        0.88356
C          0.00556        0.36583        0.00000
H          1.78978        1.21821        0.88235
H          1.78978        1.21821       -0.88235
C          1.14539        1.38948       -0.00000
H          0.04014        3.05435       -0.88868
H          0.04014        3.05435        0.88868
H          1.49824        3.55205       -0.00000
C          0.65804        2.83909       -0.00000
