14
1-IODOBUTANE.gamout	Energy:    -455.3179535
C          0.88112        0.02651       -0.00012
C          2.23464        0.75387        0.00009
C          3.40758       -0.21513       -0.00010
C         -0.30979        0.98837        0.00013
I          5.34540        0.80875        0.00020
H          0.82076       -0.63568       -0.88272
H          0.82079       -0.63614        0.88214
H          2.30199        1.41138        0.88359
H          2.30200        1.41186       -0.88306
H          3.43444       -0.84923       -0.89579
H          3.43441       -0.84961        0.89531
H         -1.26519        0.44061        0.00001
H         -0.29938        1.64030        0.88971
H         -0.29946        1.64076       -0.88911
