27
1-METHYL-1-ISOPROPYLCYCLOPENTANE.gamout	Energy:    -353.2868646
C         -0.69111       -0.80314       -0.44231
C          0.85993       -0.74104       -0.44695
C          1.24043        0.27824        0.64848
C          0.01791        1.23315        0.77102
C         -1.04709        0.69030       -0.21197
C         -1.29961       -1.41474       -1.74869
C         -2.83356       -1.29950       -1.80119
C         -0.71126       -0.86379       -3.05879
C         -1.14753       -1.64298        0.77146
H          1.21428       -0.37050       -1.42037
H          1.32008       -1.73174       -0.29267
H          2.16579        0.81720        0.39097
H          1.43616       -0.22785        1.60722
H          0.28329        2.27597        0.53588
H         -0.36762        1.23987        1.80297
H         -2.07369        0.82638        0.16347
H         -0.98294        1.23708       -1.16785
H         -1.05502       -2.49401       -1.72037
H         -3.15464       -0.24760       -1.88660
H         -3.32393       -1.72697       -0.91392
H         -3.23128       -1.83269       -2.68025
H         -0.83410        0.22968       -3.13908
H         -1.23039       -1.30960       -3.92298
H          0.35864       -1.09091       -3.17519
H         -0.68585       -1.29406        1.70798
H         -0.86640       -2.70165        0.64147
H         -2.23757       -1.60018        0.91712
