16
1-METHYLCYCLOPENTENE.gamout	Energy:    -234.3107925
C          0.96568        1.58946        0.91429
C          1.95019        1.90805        1.99684
C          2.16502        3.32831        2.48820
C          2.77696        1.05762        2.62641
C          3.02787        3.15271        3.76083
C          3.67207        1.74871        3.62726
H          1.19292        2.15386       -0.00861
H          0.96154        0.51717        0.66549
H         -0.05974        1.87724        1.20929
H          2.68539        3.92244        1.71051
H          1.21436        3.85541        2.68554
H          2.83614       -0.01439        2.41464
H          3.77029        3.95538        3.89023
H          2.37536        3.17025        4.64937
H          3.73229        1.21736        4.59331
H          4.71128        1.80750        3.24682
