43
1-OCTYLAZEPAN-2-ONE.gamout	Energy:    -678.8128350
O          2.30062       -2.12097        0.68357
N          2.18547        0.06527        0.07532
C          2.74818        1.22896       -0.60160
C          0.90398        0.21341        0.75794
C          3.98326        1.83294        0.08098
C         -0.31409        0.02935       -0.15529
C          5.28130        1.06805       -0.18725
C          5.26899       -0.40813        0.21791
C         -1.64281        0.19264        0.59176
C          4.20057       -1.26028       -0.49097
C         -2.88463        0.00222       -0.28841
C          2.81061       -1.15699        0.12897
C         -4.21332        0.15674        0.46442
C         -5.45886       -0.02785       -0.41118
C         -6.78216        0.12239        0.34796
C         -8.02017       -0.06050       -0.53218
H          1.95221        1.98588       -0.64401
H          2.98369        0.98805       -1.65410
H          0.87790       -0.53960        1.55705
H          0.87604        1.21031        1.23347
H          3.78746        1.89875        1.16626
H          4.10471        2.86883       -0.27810
H         -0.26957        0.75049       -0.99284
H         -0.25947       -0.97746       -0.60473
H          6.11422        1.57618        0.32632
H          5.50997        1.13222       -1.26825
H          5.14168       -0.50531        1.31102
H          6.25850       -0.83615       -0.00988
H         -1.67274       -0.52869        1.42939
H         -1.67927        1.19555        1.05889
H          4.45650       -2.32446       -0.41598
H          4.17073       -1.00729       -1.56603
H         -2.84705       -0.99805       -0.75930
H         -2.85398        0.72633       -1.12465
H         -4.24875        1.15582        0.93914
H         -4.24322       -0.57052        1.29770
H         -5.42614       -1.02541       -0.88930
H         -5.43362        0.70181       -1.24302
H         -6.80879       -0.60790        1.17782
H         -6.81577        1.11886        0.82650
H         -8.94759        0.05471        0.05079
H         -8.04671        0.68108       -1.34884
H         -8.04079       -1.06151       -0.99602
