27
1-OCTANOL.gamout	Energy:    -390.3656435
C          4.00352        3.20493        1.52081
C          5.26371        3.17824        2.39011
C          6.10467        1.90880        2.21581
C          3.15462        4.46991        1.68590
C          7.36394        1.87591        3.08332
C          1.89509        4.48755        0.81413
C          8.19073        0.61115        2.90074
C          1.04798        5.75114        0.97934
O          9.32273        0.68529        3.74452
H          4.29179        3.09685        0.45799
H          3.38281        2.31844        1.75211
H          5.88777        4.06226        2.16024
H          4.97773        3.28288        3.45352
H          6.38795        1.80676        1.15101
H          5.47697        1.02628        2.44350
H          2.86405        4.57963        2.74802
H          3.77293        5.35763        1.45259
H          7.09638        1.96171        4.15163
H          8.00881        2.74421        2.85840
H          2.18718        4.37570       -0.24652
H          1.28026        3.59882        1.04886
H          8.48386        0.51368        1.83318
H          7.56394       -0.27579        3.13662
H          1.62129        6.65584        0.71421
H          0.15274        5.72409        0.33715
H          0.70714        5.87200        2.02178
H          9.84504       -0.11742        3.62709
