45
1-PENTADECENE.gamout	Energy:    -588.8007890
C          4.87907        5.20790        2.81481
C          5.12755        6.12086        4.02167
C          6.49368        5.95310        4.70361
C          3.46811        5.35240        2.23085
C          7.72731        6.25253        3.83908
C          3.19292        4.53314        0.96097
C          7.78332        7.65837        3.22334
C          3.26704        3.00432        1.09666
C          7.79245        8.84990        4.19241
C          2.24117        2.38071        2.05054
C          9.10869        9.10656        4.95024
C          2.26852        0.84747        2.06575
C          9.43074        8.16464        6.07573
C          1.25519        0.21761        3.02395
C         10.59437        7.53317        6.25787
H          5.05766        4.15988        3.11854
H          5.61752        5.42150        2.02020
H          4.34244        5.93110        4.77575
H          4.98902        7.17373        3.71338
H          6.58326        4.91750        5.07857
H          6.51077        6.59156        5.60358
H          3.29381        6.41728        1.99283
H          2.72472        5.10029        3.00950
H          7.78282        5.51941        3.01627
H          8.62587        6.07966        4.45218
H          2.19058        4.80572        0.58331
H          3.90417        4.84537        0.17502
H          6.92562        7.78651        2.54033
H          8.67918        7.72377        2.58020
H          3.12654        2.56915        0.09098
H          4.28401        2.70240        1.40842
H          7.57508        9.75855        3.60664
H          6.96159        8.76307        4.91573
H          1.22664        2.72246        1.76887
H          2.40918        2.75229        3.07855
H          9.04326       10.12495        5.37869
H          9.94931        9.13115        4.23353
H          2.08510        0.47199        1.04153
H          3.28555        0.50516        2.33276
H          8.63353        8.02217        6.81907
H          1.30794       -0.88238        2.99721
H          1.43415        0.53207        4.06673
H          0.22113        0.50603        2.76817
H         10.76387        6.88574        7.12237
H         11.42315        7.64327        5.54960
