20
1-PHENYL-1-PROPANONE.out Energy: -423.90496380
O -1.50395212 -1.64182625 0.00000000
C 0.82663973 -2.16099220 0.00000000
C -0.11264551 0.27263340 0.00000000
C -0.36634422 -1.21161590 0.00000000
C 1.17651028 0.83303111 0.00000000
C -1.22743672 1.12977959 0.00000000
C 0.42354387 -3.63145824 0.00000000
C 1.34532394 2.21999676 0.00000000
C -1.05912818 2.51329815 0.00000000
C 0.22914288 3.06170630 0.00000000
H 1.45526011 -1.92329824 -0.87713145
H 1.45526011 -1.92329824 0.87713145
H 2.05968626 0.19172071 0.00000000
H -2.22095240 0.67717483 0.00000000
H -0.18471885 -3.87378801 -0.88399666
H 1.31250698 -4.28058647 0.00000000
H -0.18471885 -3.87378801 0.88399666
H 2.35219526 2.64502993 0.00000000
H -1.93290154 3.16999344 0.00000000
H 0.36272785 4.14666501 0.00000000
