12
1-PROPANETHIOL.gamout	Energy:    -516.9790402
C          3.35301        1.06561        2.10199
C          2.06519        1.86442        1.89876
C          0.88695        1.30160        2.69743
S          4.82255        1.73752        1.22783
H          3.21418        0.00925        1.81887
H          3.64826        1.07317        3.16455
H          1.81432        1.87360        0.82263
H          2.25064        2.91522        2.17913
H          0.66613        0.25820        2.41469
H          1.09138        1.31404        3.78159
H         -0.02807        1.89133        2.52669
H          4.33873        1.59187       -0.02910
