40
1-TETRADECYNE.gamout	Energy:    -548.3093736
C          0.25795        8.19193        0.22176
C          0.82716        7.19286        0.60507
C          1.52167        5.99576        1.08137
C          2.41003        6.23733        2.31831
C          3.11859        4.96695        2.80175
C          4.00825        5.17928        4.03500
C          4.71207        3.90663        4.52640
C          5.59842        4.11873        5.76183
C          6.29710        2.84516        6.25896
C          7.18130        3.05641        7.49634
C          7.87642        1.78208        7.99705
C          8.75915        1.99107        9.23481
C          9.44975        0.71625        9.73345
C         10.32667        0.93523       10.96757
H         -0.24756        9.07466       -0.12033
H          2.13564        5.58669        0.25786
H          0.77139        5.21621        1.31047
H          1.78669        6.65242        3.12937
H          3.15506        7.01531        2.07558
H          3.73067        4.55598        1.97691
H          2.36049        4.19345        3.02802
H          3.39572        5.59669        4.85609
H          4.76759        5.95034        3.80532
H          5.32617        3.49014        3.70574
H          3.95145        3.13544        4.75246
H          4.98552        4.54023        6.58081
H          6.36151        4.88666        5.53325
H          5.53331        2.07690        6.48429
H          6.91206        2.42481        5.44085
H          7.94661        3.82229        7.26812
H          6.56786        3.48047        8.31368
H          7.11057        1.01582        8.22239
H          8.49193        1.35905        7.18068
H          8.14668        2.41489       10.05327
H          9.52736        2.75508        9.00903
H          8.68212       -0.04744        9.95784
H         10.06445        0.29285        8.91768
H          9.73976        1.32131       11.81835
H         10.80370       -0.00278       11.29194
H         11.12977        1.66446       10.76571
