32
2,2,3,5-TETRAMETHYLHEXANE.gamout	Energy:    -393.7443205
C          1.67102        0.16889       -1.19013
C          2.46482        1.24736       -0.44131
C          3.56136        0.60194        0.43251
C          3.00920        2.29405       -1.42151
C          4.33141        1.56985        1.37533
C          4.32776        1.11768        2.88204
C          5.73820        1.85384        0.82074
C          4.97012       -0.27045        3.07316
C          5.09759        2.14046        3.74403
C          2.87400        1.08160        3.40048
H          1.23002       -0.56432       -0.49469
H          0.84945        0.60886       -1.77958
H          2.31888       -0.38714       -1.89072
H          1.76411        1.76313        0.24435
H          3.08085       -0.19764        1.01793
H          4.27663        0.08220       -0.23234
H          3.53530        3.11405       -0.90763
H          2.19401        2.74746       -2.00990
H          3.71713        1.83769       -2.13609
H          3.78832        2.53430        1.37144
H          6.25448        2.65666        1.36805
H          5.68087        2.16481       -0.23393
H          6.37761        0.95601        0.85579
H          4.95341       -0.55797        4.13769
H          4.43689       -1.05599        2.51430
H          6.02324       -0.28606        2.74901
H          4.98260        1.90636        4.81542
H          4.71779        3.16460        3.58652
H          6.17653        2.14425        3.52625
H          2.39965        2.07305        3.30795
H          2.24835        0.35821        2.85505
H          2.84707        0.79770        4.46565
