32
2,2,3,3-TETRAMETHYLHEXANE.gamout	Energy:    -393.7385795
C          2.02994        2.03183        2.84013
C          3.41036        2.11747        2.03719
C          4.54391        2.63064        2.97437
C          3.81398        0.72968        1.49449
C          3.27539        3.06314        0.82494
C          2.20320        1.33145        4.20357
C          1.44358        3.43314        3.10917
C          0.96759        1.23587        2.05528
C          5.87362        3.05119        2.32895
C          6.93265        3.42588        3.37031
H          4.76509        1.84479        3.71620
H          4.17086        3.49294        3.55333
H          3.83689       -0.03862        2.28303
H          3.12931        0.38377        0.70629
H          4.81968        0.76692        1.04798
H          4.15517        2.97831        0.16963
H          3.19004        4.11863        1.12410
H          2.39529        2.81466        0.21255
H          1.21765        1.17589        4.67125
H          2.67642        0.34221        4.10511
H          2.80410        1.92482        4.90778
H          1.11433        3.93043        2.18490
H          0.56085        3.35291        3.76495
H          2.16054        4.09897        3.61356
H         -0.00268        1.30108        2.57347
H          0.81829        1.62528        1.03665
H          1.22226        0.16895        1.97671
H          5.71619        3.91232        1.65762
H          6.26788        2.23847        1.69380
H          7.16575        2.57726        4.03614
H          7.87351        3.73848        2.89029
H          6.59283        4.25923        4.00908
