32
2,2,3,3,4-PENTAMETHYLPENTANE.gamout	Energy:    -393.7262938
C          0.54175        3.56981        0.04778
C          1.72900        4.54198       -0.10653
C          3.19166        3.92606       -0.01497
C          1.44189        5.48854       -1.28538
C          3.74538        3.15063       -1.30702
C          4.13818        5.10025        0.33747
C          3.21144        2.98542        1.21524
C          2.70279        2.18412       -1.90612
C          4.98599        2.29674       -0.94101
C          4.20390        4.10919       -2.43231
H          0.64224        2.90646        0.91840
H         -0.38411        4.15122        0.19399
H          0.38303        2.93852       -0.83754
H          1.68922        5.17864        0.79718
H          2.23246        6.23779       -1.43551
H          0.50547        6.03866       -1.09440
H          1.30204        4.94631       -2.23395
H          5.18786        4.77437        0.39959
H          3.87234        5.52005        1.32174
H          4.09326        5.92499       -0.38812
H          2.69350        3.45942        2.06501
H          2.72210        2.01733        1.03030
H          4.23946        2.77650        1.54480
H          3.17208        1.56579       -2.68990
H          1.86305        2.71521       -2.37724
H          2.29048        1.49449       -1.15390
H          5.42646        1.87590       -1.85976
H          5.77362        2.88719       -0.44668
H          4.73766        1.44901       -0.28579
H          3.40820        4.77877       -2.78178
H          5.05754        4.73021       -2.12183
H          4.53635        3.51833       -3.30191
