26
2,2,3-TRIMETHYLPENTANE.gamout	Energy:    -315.2346908
C          3.22138        2.01572        2.63853
C          1.82284        1.81065        1.94434
C          4.16694        2.96324        1.86487
C          3.94327        0.69933        2.97670
C          1.95179        1.08294        0.59084
C          1.13625        3.17550        1.71815
C          0.89999        0.98324        2.86528
C          5.42004        3.39442        2.63627
H          2.99336        2.51627        3.60077
H          4.47670        2.48125        0.91968
H          3.62022        3.87420        1.57637
H          4.31147        0.19200        2.06906
H          4.81588        0.88602        3.62052
H          3.29760       -0.00764        3.51692
H          2.37655        0.07316        0.70754
H          0.96162        0.96876        0.11869
H          2.58890        1.63804       -0.11619
H          0.08973        3.03029        1.40330
H          1.12507        3.77469        2.64436
H          1.62853        3.77153        0.93489
H          0.77790        1.46778        3.84892
H         -0.10238        0.88621        2.41647
H          1.27792       -0.03607        3.03470
H          6.09281        2.55105        2.85748
H          6.00115        4.12867        2.05482
H          5.15452        3.86915        3.59668
