23
2,2-DIMETHYLPENTANE.gamout	Energy:    -275.9853456
C          3.25791        2.35728        2.11518
C          1.72212        2.19596        1.94985
C          3.77359        3.65714        2.74584
C          1.45282        0.81110        1.32963
C          1.15646        3.27905        1.00979
C          1.01024        2.27818        3.31499
C          5.30132        3.70052        2.84336
H          3.63009        1.50638        2.71658
H          3.72280        2.23909        1.11829
H          3.42624        4.52553        2.15935
H          3.34492        3.77934        3.75553
H          1.83740        0.00330        1.97469
H          0.37241        0.64102        1.18770
H          1.94034        0.71340        0.34509
H          0.07706        3.12728        0.84185
H          1.28383        4.29248        1.42244
H          1.65454        3.25126        0.02566
H          1.12942        3.26896        3.78095
H         -0.07159        2.09556        3.20310
H          1.40570        1.52500        4.01752
H          5.76871        3.62266        1.84708
H          5.65054        4.63953        3.30293
H          5.68886        2.86684        3.45356
