20
2,2-DIMETHYLBUTANOIC_ACID.gamout	Energy:    -385.8214502
O          1.06520       -0.01672       -1.36006
O          1.28568       -0.65651        0.77024
C         -0.64006        0.70606        0.19981
C         -1.65345       -0.30289        0.81168
C         -0.30527        1.77578        1.26427
C         -1.20339        1.38550       -1.05865
C          0.66016       -0.06029       -0.07367
C         -2.04559       -1.48492       -0.07691
H         -1.21546       -0.68290        1.74867
H         -2.55547        0.26890        1.09231
H         -1.21343        2.34012        1.53022
H          0.09815        1.30861        2.17452
H          0.44096        2.49355        0.88686
H         -0.49530        2.12531       -1.46133
H         -2.13947        1.91107       -0.80891
H         -1.41548        0.66633       -1.86216
H         -2.74153       -2.15252        0.45604
H         -2.54635       -1.16511       -1.00455
H         -1.16867       -2.09156       -0.35797
H          1.89136       -0.53003       -1.40427
