29
2,3,5-TRIMETHYLHEXANE.gamout	Energy:    -354.4938919
C          3.83838        1.93535        1.92652
C          2.63125        2.59171        2.63098
C          1.52353        3.06923        1.64474
C          2.05433        1.68073        3.72566
C          5.15376        1.87379        2.73246
C          1.94554        4.31414        0.85147
C          1.00959        1.97053        0.70123
C          6.15948        0.93946        2.04494
C          5.77282        3.26202        2.94993
H          4.05051        2.46320        0.97902
H          3.55616        0.90701        1.63699
H          2.98794        3.50952        3.13332
H          0.67140        3.37245        2.28200
H          2.81460        1.41488        4.47751
H          1.66614        0.73657        3.30756
H          1.22579        2.17456        4.25984
H          4.93309        1.44346        3.72730
H          2.26258        5.13012        1.52232
H          2.78233        4.10341        0.16413
H          1.11055        4.69286        0.23907
H          1.77867        1.66752       -0.02900
H          0.13796        2.32711        0.12806
H          0.69620        1.06648        1.24735
H          7.09675        0.86104        2.62028
H          6.41898        1.30998        1.03735
H          5.75061       -0.07783        1.92808
H          6.01577        3.73661        1.98273
H          6.70746        3.19458        3.53063
H          5.09653        3.94165        3.49195
