15
2,3,4,5,6-PENTAFLUOROTOLUENE.gamout	Energy:    -766.7994784
C          6.35238        1.86835       -0.67291
C          7.25521        3.03308       -0.98180
C          6.85040        0.60479       -0.33566
C          4.95990        2.01005       -0.71260
F          8.17004        0.39964       -0.27916
C          6.00762       -0.47421       -0.04950
F          4.43336        3.19713       -1.02917
C          4.09300        0.95226       -0.43213
F          6.51599       -1.66207        0.26755
C          4.62276       -0.29829       -0.09838
F          2.77470        1.12444       -0.48001
F          3.81074       -1.31477        0.17121
H          8.30941        2.73964       -0.89968
H          7.07480        3.41006       -2.00135
H          7.06816        3.86822       -0.28779
