24
2,3,3-TRIMETHYL-2-BUTANOL.out Energy: -351.35186614
O -0.22814787 -1.23959660 -1.35762986
C 0.00005458 0.78773758 0.02569752
C -0.00604122 -0.79934566 -0.01256577
C 1.16174996 1.32613774 -0.83466325
C 0.14587856 1.32604628 1.46282014
C -1.31562463 1.33943261 -0.56593872
C 1.35276249 -1.40619988 0.35993413
C -1.08782968 -1.41309635 0.89405804
H 1.15233858 0.86160044 -1.83178265
H 1.07097499 2.41721283 -0.96047787
H 2.14253711 1.13214965 -0.37472924
H 1.05399142 0.94788234 1.95748387
H 0.21912336 2.42586122 1.44725683
H -0.71785567 1.06728939 2.09470312
H -1.30790772 2.44065747 -0.54051617
H -1.44249034 1.04669558 -1.62057267
H -2.20383303 1.01056068 -0.00421026
H 1.27445671 -2.50356541 0.34345581
H 1.67961350 -1.09966953 1.36387124
H 2.12541211 -1.12114708 -0.36646454
H -0.89504311 -1.22347837 1.96023402
H -2.09308355 -1.02702690 0.66159436
H -1.10465250 -2.50269127 0.74027967
H -1.14434120 -1.04620777 -1.59241340
