13
2,3-PENTADIENE.gamout	Energy:    -195.0140484
C          2.08945        2.96228        1.97562
C          0.82868        2.42162        2.60530
C          3.08556        2.23971        1.51612
C          4.08092        1.51588        1.05704
C          5.28484        1.07163        1.85170
H          2.16773        4.05715        1.89822
H          0.69965        2.81421        3.62899
H         -0.06195        2.72933        2.02967
H          0.84239        1.32286        2.65646
H          4.04536        1.19917        0.00378
H          5.35309       -0.02998        1.88174
H          6.21843        1.43717        1.38929
H          5.24488        1.44246        2.88655
