23
2,3-DIMETHYLPENTANE.gamout	Energy:    -275.9819274
C          4.38613        2.63500        2.75634
C          3.28100        2.02698        1.84436
C          1.91684        2.72347        2.04411
C          3.14667        0.50648        2.03016
C          4.62487        4.13032        2.48562
C          5.72509        1.88658        2.64702
C          0.83954        2.36645        1.01415
H          4.03255        2.53465        3.80207
H          3.59521        2.21031        0.79623
H          1.54524        2.49638        3.06171
H          2.05615        3.81546        2.01469
H          2.92261        0.25668        3.08252
H          2.33307        0.09657        1.41306
H          4.06268       -0.03165        1.74586
H          5.43978        4.51433        3.12060
H          4.91837        4.29810        1.43427
H          3.73875        4.74946        2.68854
H          6.09876        1.89598        1.60752
H          6.49116        2.36854        3.27598
H          5.65304        0.83727        2.96825
H          0.58334        1.29513        1.02122
H         -0.09083        2.92312        1.21202
H          1.16697        2.62131       -0.00849
