21
2,3-DIMETHYL-2-PENTENE.gamout	Energy:    -274.7652118
C          3.58187        3.03759        2.09308
C          2.98549        1.91281        2.55468
C          2.10170        1.02587        1.68895
C          3.10417        1.41149        3.97682
C          3.42750        3.54402        0.67597
C          4.47219        3.93423        2.92310
C          0.60957        1.39219        1.74969
H          2.43366        1.03876        0.63949
H          2.22187       -0.01935        2.02620
H          3.58191        2.11949        4.66548
H          3.68020        0.46811        4.01070
H          2.10674        1.17590        4.38860
H          4.40775        3.58945        0.16614
H          3.03793        4.57842        0.67881
H          2.75396        2.94117        0.05434
H          4.65301        3.56980        3.94171
H          4.04302        4.95039        3.00043
H          5.45648        4.05488        2.43488
H          0.23002        1.38270        2.78491
H          0.43325        2.40208        1.34518
H         -0.00053        0.68214        1.16674
