15
2,3-DIMETHYLTHIOPHENE.gamout	Energy:    -631.1409554
C         -5.10593       -1.89580       -2.22954
C         -4.95441       -0.75974       -1.25218
C         -5.97771       -0.16646       -0.53933
C         -3.67570       -0.17302       -0.95186
C         -7.44615       -0.47823       -0.53127
S         -5.36480        1.10387        0.49484
C         -3.73817        0.83680       -0.03153
H         -4.60768       -1.66425       -3.18604
H         -4.64539       -2.82197       -1.84337
H         -6.15903       -2.12119       -2.45080
H         -2.74402       -0.50175       -1.41827
H         -7.71184       -1.12854       -1.37728
H         -7.75428       -0.99683        0.39358
H         -8.05699        0.43595       -0.61168
H         -2.92417        1.44397        0.36268
