16
2,3-DIMETHYL-1,3-BUTADIENE.gamout	Energy:    -234.2895604
C          1.81613        2.19503        1.22762
C          3.28026        2.12554        0.98041
C          3.97001        0.78728        1.12018
C          3.99239        3.21827        0.63932
C          1.12633        3.53325        1.08763
C          1.10410        1.10240        1.56926
H          5.04591        0.87590        0.91108
H          3.85391        0.37876        2.13822
H          3.54916        0.04170        0.42453
H          5.06934        3.15434        0.45974
H          3.54075        4.20562        0.52614
H          1.24281        3.94188        0.06967
H          0.05034        3.44453        1.29625
H          1.54692        4.27878        1.78349
H          1.55583        0.11515        1.68290
H          0.02712        1.16629        1.74869
