19
2,3-XYLENOL.gamout	Energy:    -385.5833993
C          1.27004        1.65368       -0.58338
C          1.93184        0.90253        0.40931
C          1.89968        2.91168       -1.12942
H          2.86911        3.10857       -0.65545
H          1.25436        3.79159       -0.96253
H          2.06156        2.84148       -2.21906
C          0.01519        1.20111       -1.04735
C         -0.54634        0.02662       -0.52074
C          0.12338       -0.70428        0.46140
C          1.36309       -0.26846        0.92861
C         -0.71917        1.98309       -2.10918
H         -0.12752        2.06477       -3.03739
H         -1.67886        1.50947       -2.36405
H         -0.93085        3.01558       -1.78125
H         -1.51809       -0.31374       -0.88789
H         -0.31854       -1.61772        0.86793
H          1.89808       -0.83344        1.69926
O          3.14359        1.35306        0.84793
H          3.48108        0.74847        1.52144
