20
2,3-DIMETHYLANILINE.out Energy: -365.97547328
N -0.62275963 -2.43861584 0.00000000
C -0.67003474 -0.01014966 0.00000000
C 0.03972086 1.20903879 0.00000000
C 0.04924292 -1.23493849 0.00000000
C 1.44389203 1.19974075 0.00000000
C -2.17880004 -0.07105619 0.00000000
C 1.45838626 -1.21810556 0.00000000
C -0.68461245 2.53752615 0.00000000
C 2.14413100 -0.00790613 0.00000000
H 1.98779756 2.14753453 0.00000000
H -2.64263769 0.92241452 0.00000000
H -2.56349189 -0.60767150 -0.88745665
H -2.56349189 -0.60767150 0.88745665
H 2.00574872 -2.16537810 0.00000000
H -1.33074414 2.65735218 -0.88615214
H -1.33074414 2.65735218 0.88615214
H 0.03189635 3.37168901 0.00000000
H 3.23761133 -0.00591815 0.00000000
H -1.62858863 -2.48418083 0.00000000
H -0.11175539 -3.30805796 0.00000000
