24
2,3-DIMETHYL-3-PENTANOL.gamout	Energy:    -351.1121507
C          2.30404       -0.77923        0.03775
C          1.20114        0.17740        0.51839
C          1.58213        1.61928        0.14098
C         -0.21917       -0.24437       -0.00106
C         -1.30753        0.73661        0.50814
C         -2.73519        0.43616        0.04200
O         -0.23006       -0.27326       -1.43356
C         -0.55075       -1.67881        0.42599
H          3.29516       -0.41909        0.35735
H          2.18368       -1.79740        0.43543
H          2.29920       -0.84505       -1.06197
H          1.15657        0.12459        1.62231
H          1.58822        1.76006       -0.95481
H          0.90918        2.37251        0.57647
H          2.59972        1.85180        0.49328
H         -1.26589        0.77178        1.61153
H         -1.04217        1.75164        0.16725
H         -3.13920       -0.48387        0.49209
H         -3.41449        1.25925        0.31587
H         -2.76684        0.31339       -1.05177
H         -0.10851        0.63022       -1.75526
H         -0.53740       -1.77592        1.52320
H         -1.54626       -1.96679        0.06085
H          0.16873       -2.39077        0.00023
