24
2,4,4-TRIMETHYL-2-PENTENE.gamout	Energy:    -314.0163926
C          3.14430        1.36930        2.53196
C          2.00628        1.76397        1.92910
C          0.70301        1.06270        2.23951
C          1.86226        2.88327        0.92632
C          4.58138        1.89071        2.41615
C          5.13080        1.73662        0.97926
C          5.46547        1.04130        3.35549
C          4.68379        3.36496        2.87061
H          3.03368        0.53090        3.23158
H         -0.04311        1.77169        2.64310
H          0.25621        0.63106        1.32500
H          0.83306        0.25164        2.97139
H          1.14257        3.63775        1.29288
H          1.44557        2.49764       -0.02191
H          2.79950        3.40090        0.69326
H          4.56806        2.33677        0.24915
H          6.18525        2.05865        0.93414
H          5.08423        0.68586        0.65037
H          6.51603        1.37243        3.31616
H          5.12547        1.12123        4.40134
H          5.43670       -0.02415        3.07316
H          4.31072        3.48291        3.90071
H          5.73307        3.70647        2.84966
H          4.10211        4.04197        2.22783
