17
2,4-DINITROPHENOL.gamout	Energy:    -715.5803019
C          6.37465        1.88789       -0.66450
C          6.90293        0.64376       -0.35108
C          4.98171        2.10697       -0.72587
C          6.03011       -0.41427       -0.07950
C          4.65209       -0.24046       -0.11797
N          6.57919       -1.73986        0.25730
C          4.12997        1.00822       -0.44817
N          2.65731        1.12580       -0.49735
O          4.47795        3.31142       -1.00751
O          2.18012        2.04047       -1.14234
O          2.01898        0.27607        0.10395
O          5.78483       -2.63786        0.47919
O          7.79487       -1.84871        0.29112
H          7.04521        2.72748       -0.87139
H          7.97884        0.47455       -0.30894
H          3.97826       -1.06520        0.10834
H          5.19790        3.94851       -1.12322
