23
2,4-DIMETHYLPENTANE.gamout	Energy:    -275.9815187
C          3.48269        3.45980        2.27638
C          2.03358        3.94004        2.01948
C          3.89556        2.04952        1.78311
C          1.72856        4.10861        0.52282
C          0.94552        3.10322        2.70851
C          5.38448        2.02534        1.40385
C          3.59946        0.94425        2.80895
H          3.69480        3.52952        3.35974
H          4.14794        4.20040        1.79768
H          1.98350        4.95059        2.46711
H          3.32167        1.82251        0.86591
H          1.71473        3.13972       -0.00493
H          2.47853        4.74738        0.02723
H          0.74051        4.57392        0.37159
H         -0.03631        3.59797        2.62061
H          1.15388        2.96657        3.78239
H          0.84416        2.10348        2.25438
H          5.69629        1.02545        1.05860
H          6.01630        2.28944        2.27032
H          5.60922        2.74423        0.59868
H          3.87391       -0.04742        2.41169
H          2.53780        0.90533        3.09145
H          4.18350        1.10324        3.73251
