32
2,4-DIMETHYLOCTANE.gamout	Energy:    -393.7529555
C          0.78708       18.14633        0.03237
C          1.80463       19.28857        0.04871
C          1.16144       20.67968        0.01939
C          2.17843       21.82679        0.03614
C          1.59424       23.24978       -0.09845
C          0.72481       23.62660        1.11862
C          2.72229       24.26186       -0.34462
C         -0.00488       24.98502        1.08208
C         -0.97439       25.10694       -0.10128
C         -0.73637       25.22743        2.40979
H          1.28008       17.16086        0.05412
H          0.11166       18.19960        0.90320
H          0.15766       18.18362       -0.87314
H          2.48955       19.18529       -0.81309
H          2.44263       19.20219        0.94759
H          0.47294       20.76977        0.87816
H          0.52740       20.76733       -0.88346
H          2.89516       21.66823       -0.79026
H          2.77844       21.77173        0.96506
H          0.94635       23.24532       -0.99555
H         -0.03833       22.84202        1.26807
H          1.36384       23.59773        2.02204
H          2.34029       25.27586       -0.54144
H          3.33298       23.96698       -1.21369
H          3.39724       24.32553        0.52745
H          0.75268       25.78316        0.97571
H         -1.49987       26.07621       -0.08367
H         -0.45940       25.03210       -1.07214
H         -1.74318       24.31424       -0.07095
H         -1.22882       26.21376        2.42423
H         -0.04384       25.18542        3.26688
H         -1.51657       24.46406        2.57713
