20
2,5-DIMETHYLANILINE.out Energy: -365.97803878
N 1.79661839 1.63113765 0.00000000
C -0.58392712 1.14692103 0.00000000
C 0.76911282 0.71288220 0.00000000
C 0.03200084 -1.62922470 0.00000000
C 1.04888129 -0.66628733 0.00000000
C -1.58670253 0.17439977 0.00000000
C -1.29990462 -1.19436091 0.00000000
C -0.90747718 2.61924626 0.00000000
C 0.37903000 -3.09941814 0.00000000
H 2.09547126 -0.98945570 0.00000000
H -2.63098853 0.50213746 0.00000000
H -2.11409605 -1.92342440 0.00000000
H -0.49508976 3.13331267 0.88821521
H -0.49508976 3.13331267 -0.88821521
H -1.99399545 2.78799784 0.00000000
H 0.97693075 -3.37252717 -0.88608831
H 0.97693075 -3.37252717 0.88608831
H -0.52486815 -3.72640938 0.00000000
H 2.75772855 1.32529245 0.00000000
H 1.61779320 2.62234217 0.00000000
