32
2,7-DIMETHYLOCTANE.gamout	Energy:    -393.7549315
C         -0.16859       -0.02972        0.02127
C          0.99935        0.87602        0.43443
H         -0.03614       -1.05769        0.39749
H         -1.12919        0.34961        0.40709
H         -0.25277       -0.08842       -1.07830
C          2.33878        0.29099       -0.05510
H          1.03451        0.89418        1.54142
C          0.76740        2.31488       -0.04878
H          2.33380        0.26780       -1.16226
H          2.39265       -0.76624        0.26426
C          3.59873        1.01463        0.43254
H          3.56760        1.09682        1.53573
H          3.60882        2.05283        0.05533
C          4.90212        0.32332        0.01568
H          4.93325        0.24114       -1.08750
H          4.89202       -0.71489        0.39289
C          6.16207        1.04694        0.50334
H          6.16711        1.07005        1.61050
H          6.10818        2.10420        0.18406
C          7.50149        0.46198        0.01372
H          7.46628        0.44387       -1.09327
C          7.73350       -0.97690        0.49685
C          8.66942        1.36773        0.42687
H          8.75365        1.42639        1.52644
H          8.53692        2.39572        0.05070
H          9.63002        0.98845        0.04098
H         -0.21908        2.68614        0.27439
H          0.79615        2.36862       -1.15168
H          1.52579        3.01281        0.33913
H          6.97511       -1.67483        0.10894
H          7.70482       -1.03070        1.59974
H          8.71998       -1.34811        0.17362
