34
2-(2-BUTOXYETHOXY)ETHYL_ACETATE.gamout	Energy:    -693.0739582
O         -2.76548        0.22895        0.00267
O          0.79470       -0.19298       -0.00291
O          4.31501        0.51303       -0.00287
O          5.61945       -1.31839       -0.03420
C         -5.15383        0.31281        0.00393
C         -3.92044       -0.57869       -0.00611
C         -6.46900       -0.47146       -0.00579
C         -1.55705       -0.48474       -0.00349
C         -0.41739        0.52101        0.00404
C         -7.70779        0.42664        0.00453
C          1.94498        0.61101        0.00257
C          3.14850       -0.31437       -0.00907
C          5.50913       -0.11861       -0.01537
C          6.64618        0.87402       -0.00275
H         -5.10333        0.98281       -0.87263
H         -5.10407        0.96287        0.89540
H         -3.92589       -1.23461       -0.90376
H         -3.92536       -1.25466        0.87651
H         -6.49842       -1.12623       -0.89613
H         -6.49931       -1.14691        0.86896
H         -1.46986       -1.13303       -0.90028
H         -1.46911       -1.14703        0.88295
H         -0.50193        1.18228       -0.88261
H         -0.50066        1.16782        0.90142
H         -7.72848        1.09034       -0.87639
H         -8.63691       -0.16577       -0.00308
H         -7.72908        1.06870        0.90129
H          1.98060        1.26274        0.90033
H          1.97743        1.27921       -0.88313
H          3.14374       -0.97602        0.87213
H          3.13939       -0.95760       -0.90373
H          6.57400        1.53847       -0.87798
H          7.60282        0.33839       -0.01342
H          6.57828        1.51112        0.89293
