14
2-ACETYLTHIOPHEN.gamout	Energy:    -705.0768291
C         -1.49256        1.93064       -0.54132
C         -2.76153        1.84537        0.28956
O         -2.91747        2.51775        1.29268
C         -3.80992        0.90866       -0.16754
S         -5.28148        0.78871        0.76316
C         -5.91778       -0.39138       -0.31880
C         -5.04972       -0.68514       -1.34732
C         -3.84262        0.05985       -1.25962
H         -0.81587        2.66029       -0.07774
H         -0.99247        0.94994       -0.59716
H         -1.71968        2.24470       -1.57328
H         -6.90704       -0.81461       -0.14401
H         -5.26809       -1.40733       -2.13589
H         -3.02473       -0.02625       -1.97705
