15
2-BUTANETHIOL.gamout	Energy:    -556.2356739
C          2.14708        2.77169        1.55663
C          0.75900        2.15117        1.36857
C          3.30814        1.90901        1.03484
C          3.49303        0.58983        1.78679
S          4.89001        2.87412        0.97046
H          2.18571        3.74667        1.04394
H          2.31826        2.98501        2.62840
H         -0.02359        2.82602        1.75121
H          0.54387        1.96568        0.30242
H          0.65175        1.19279        1.90171
H          3.13099        1.69295       -0.03406
H          4.31721        0.00190        1.35667
H          3.72742        0.77463        2.84895
H          2.57834       -0.02514        1.74613
H          4.97727        3.10422        2.30326
