15
2-CHLOROBENZOTRICHLORIDE.gamout	Energy:   -2108.7727476
C          7.26013        3.04562       -1.02126
Cl         8.02385        3.67706        0.48899
Cl         6.37325        4.43267       -1.76629
Cl         8.54546        2.56829       -2.19704
C          6.35278        1.85616       -0.70656
C          6.84306        0.66360       -0.11897
C          4.97900        1.90992       -0.99597
Cl         8.52100        0.42819        0.30408
C          5.98387       -0.40543        0.15527
C          4.12146        0.84358       -0.72256
C          4.62442       -0.32091       -0.14409
H          4.57480        2.81407       -1.44770
H          6.40268       -1.30565        0.60823
H          3.06005        0.93198       -0.96547
H          3.96698       -1.16557        0.07667
