11
2-CHLOROPYRIDINE.gamout	Energy:    -707.3576774
C          3.08685        0.20212       -0.16457
C          4.35144       -0.39627       -0.20992
C          1.96943       -0.62833       -0.05953
N          2.05302       -1.96271       -0.00070
C          3.25103       -2.50980       -0.04463
C          4.44851       -1.78524       -0.14914
Cl         3.33963       -4.26158        0.03360
H          2.96929        1.28702       -0.20958
H          5.25548        0.21326       -0.29197
H          0.95962       -0.20352       -0.02069
H          5.40882       -2.30150       -0.18061
