17
2-CHLOROPENTANE.out Energy: -657.09750428
Cl 1.14071755 -1.48771537 0.07470395
C -0.63401054 0.63008412 0.16944949
C -0.49434148 -0.78724561 -0.38010799
C 0.38433298 1.64737872 -0.35072068
C -1.58035467 -1.73611149 0.10444122
C 0.16090482 3.05370098 0.20621475
H -0.59423109 0.58789322 1.27257653
H -1.65467278 0.97111073 -0.08941174
H -0.47505920 -0.76183232 -1.48038817
H 0.34125427 1.67410424 -1.45499587
H 1.39794513 1.29911504 -0.09428978
H -1.44360689 -2.74389230 -0.31305977
H -1.56931464 -1.81398527 1.20283706
H -2.57067305 -1.36349538 -0.20646692
H 0.91031349 3.76235201 -0.18014855
H -0.83531872 3.44387160 -0.06324865
H 0.23125204 3.06463422 1.30694716
