20
2-ETHYL-4-ETHOXYMETHYL-1,3-DIOXOLANE.gamout	Energy:    -385.7834085
C          2.95860        4.23896        6.59065
C          2.96408        3.44450        5.28513
C          3.79265        2.17595        5.36269
C          5.07782       -0.45212        3.43480
C          5.87722        1.39542        5.05747
C          5.06896        1.02222        3.80218
O          5.14911        2.47797        5.59779
O          3.75024        1.45764        4.13802
H          2.54587        3.64412        7.42310
H          3.97990        4.54109        6.86978
H          2.34607        5.14954        6.49774
H          3.36754        4.04757        4.45462
H          1.94020        3.14876        5.00085
H          3.41322        1.51339        6.17538
H          4.40505       -0.63964        2.58411
H          6.09187       -0.77725        3.14800
H          4.73641       -1.06824        4.28232
H          5.91722        0.54335        5.76860
H          6.90446        1.72584        4.84394
H          5.42704        1.61886        2.94047
