24
2-ETHYLNAPHTHALENE.gamout	Energy:    -463.8846273
C          7.71313        3.55711        1.71876
C          6.60527        2.92059        0.86365
C          5.38370        2.52309        1.66419
C          4.23821        3.29865        1.67488
C          5.40678        1.33758        2.45708
C          3.09789        2.94786        2.45176
C          4.32304        0.96449        3.22087
C          3.13792        1.75338        3.24542
C          1.91515        3.74066        2.46798
C          1.99769        1.40063        4.02047
C          0.82623        3.37287        3.23122
C          0.86695        2.19145        4.01523
H          7.35543        4.47632        2.21032
H          8.05164        2.86925        2.51077
H          8.58864        3.81875        1.10223
H          6.30852        3.62540        0.06894
H          7.01078        2.02874        0.35381
H          4.19536        4.21033        1.07023
H          6.30521        0.71268        2.44956
H          4.35790        0.04898        3.81853
H          1.88492        4.65107        1.86245
H          2.03202        0.48870        4.62364
H         -0.07468        3.99234        3.23428
H         -0.00247        1.91033        4.61546
