20
2-ETHYL-4-METHYL-1,3-DIOXOLANE.out Energy: -386.01914944
C 0.03699037 -3.12811346 -0.08109634
C -0.76083034 -1.89030937 0.32595695
C -0.19926145 -0.60309349 -0.24758471
C -0.49543275 2.88438063 -0.13134404
C 1.28088833 1.03183995 0.16835930
C -0.10842859 1.57869924 0.54107168
O 1.10322791 -0.36690928 0.23578957
O -0.97866742 0.51823652 0.14055907
H 0.06001617 -3.25147628 -1.17694177
H 1.07789142 -3.05499024 0.26912398
H -0.40482007 -4.04137751 0.34650015
H -0.78188625 -1.77716207 1.42248071
H -1.80806156 -1.96984071 -0.00997420
H -0.17711048 -0.65069803 -1.36122461
H -1.52425955 3.16712488 0.13766858
H 0.17615025 3.69947443 0.18538296
H -0.44133355 2.78989416 -1.22751100
H 1.56538174 1.35105167 -0.85598127
H 2.07737190 1.32714529 0.86669411
H -0.17945786 1.69251801 1.64012839
