23
2-ETHYL-6-METHYLANILINE.out Energy: -405.26292700
N -1.92839227 -0.22195420 -0.23380758
C 0.44818273 -0.78314976 -0.26230981
C -0.59222521 0.17540434 -0.16388905
C 0.13716449 -2.25314917 -0.45485276
C -0.28273366 1.54123955 0.05824491
C 1.77510820 -0.35100100 -0.14267524
C 1.05807129 1.92339090 0.17431325
C 2.09213624 0.99072228 0.07383215
C -0.35074458 -2.96278550 0.81966619
C -1.39450595 2.55404604 0.17452141
H -0.61664024 -2.38247145 -1.25582431
H 1.04154503 -2.76024305 -0.82807956
H 2.57629069 -1.09189504 -0.22532287
H 1.29072016 2.97848958 0.34630897
H 3.13395949 1.30673348 0.16333651
H 0.41888799 -2.92078521 1.60636484
H -0.57827669 -4.02326443 0.62237591
H -1.25887306 -2.48684611 1.22117861
H -1.99633119 2.61902947 -0.75194236
H -2.09339146 2.30193498 0.99190048
H -0.99744315 3.56000676 0.37166158
H -2.10619964 -1.10385074 -0.70016123
H -2.59061530 0.49379007 -0.50895830
