12
2-FURANCARBOXYLIC_ACID.gamout	Energy:    -418.0781262
C         -5.74181       -0.35888       -0.12464
O         -4.95349       -1.28396       -0.73947
C         -7.06675       -0.64187       -0.35522
C         -5.13672        0.73576        0.64448
C         -5.77170       -2.15551       -1.36131
C         -7.08605       -1.81657       -1.16391
O         -3.79052        0.69503        0.65299
O         -5.78188        1.58777        1.21226
H         -7.90863       -0.06411        0.01943
H         -5.28771       -2.96416       -1.90444
H         -7.95612       -2.34354       -1.55027
H         -3.50063        1.45640        1.18404
