19
2-HEXANONE.gamout	Energy:    -310.6656529
O          1.69052       -1.30596        0.01801
C         -0.91323       -0.21928        0.00789
C         -2.22578        0.57022        0.00052
C          0.32924        0.66810        0.00215
C         -3.46921       -0.32132        0.00617
C          1.64886       -0.09520        0.00893
C          2.91567        0.74431        0.00349
H         -0.87432       -0.89497       -0.86395
H         -0.87621       -0.88150        0.89009
H         -2.25316        1.24458        0.87676
H         -2.25133        1.23107       -0.88600
H          0.33369        1.33892       -0.87878
H          0.33228        1.35250        0.87259
H         -3.49368       -0.96761        0.89985
H         -4.39578        0.27526        0.00049
H         -3.49184       -0.98151       -0.87736
H          2.94471        1.39472       -0.88712
H          2.94332        1.40839        0.88401
H          3.79623        0.08804        0.00927
