24
2-HYDROXYPROPYL_NICOTINATE.gamout	Energy:    -629.1910359
O         -1.06415        0.08538        0.09509
O         -3.23955       -1.41131       -0.84830
O         -0.20840        2.14296       -0.22573
N          2.61418       -1.72221        0.12104
C         -3.36884       -0.53100        0.25480
C         -2.39359        0.60955        0.02261
C         -4.80124       -0.01352        0.39898
C          1.28064        0.28259       -0.00628
C         -0.05261        0.95408       -0.06224
C          2.43880        1.07090       -0.04547
C          1.42793       -1.11302        0.07440
C          3.67916        0.43872        0.00463
C          3.71030       -0.95898        0.08945
H         -3.06475       -1.03751        1.19410
H         -2.55980        1.05596       -0.97178
H         -2.51932        1.40365        0.77584
H         -5.11247        0.51979       -0.51347
H         -5.49690       -0.85426        0.55600
H         -4.90442        0.66778        1.25919
H         -3.72867       -2.22040       -0.65224
H          2.34269        2.15699       -0.11464
H          0.53826       -1.75002        0.09774
H          4.60895        1.01196       -0.02198
H          4.67276       -1.48385        0.13382
