14
2-IODOBUTANE.gamout	Energy:    -455.3183290
C         34.99416       30.02729       -0.02897
C         33.66063       29.28147       -0.06144
C         32.79817       29.54038       -1.28540
I         34.03670       27.09565        0.11323
C         34.82690       31.55058        0.06435
H         35.57465       29.67330        0.83658
H         35.58261       29.76461       -0.92511
H         33.09547       29.47059        0.86198
H         31.86188       28.96609       -1.25129
H         32.53222       30.61043       -1.32977
H         33.32924       29.28240       -2.21501
H         35.80981       32.03496        0.17033
H         34.34584       31.97386       -0.83137
H         34.21939       31.83574        0.93949
