19
2-ISOPROPOXYETHANOL.gamout	Energy:    -347.7169275
O         -0.21377        0.69202        0.14523
O          2.21783        3.20446        1.14179
C         -1.58260        0.34417        0.32433
C          0.23096        1.83086        0.83641
C         -2.50358        1.22149       -0.52760
C         -1.70881       -1.13527       -0.02116
C          1.70091        2.06098        0.49664
H         -1.84703        0.48543        1.39431
H         -0.34189        2.74110        0.56970
H          0.11979        1.69211        1.93626
H         -3.56050        0.96304       -0.35283
H         -2.38013        2.29036       -0.29316
H         -2.28238        1.07864       -1.59798
H         -2.74235       -1.48903        0.12052
H         -1.04014       -1.73685        0.61333
H         -1.42432       -1.30467       -1.07256
H          2.27469        1.14166        0.72927
H          1.79293        2.23231       -0.58771
H          2.26175        3.02355        2.08987
