23
2-ISOPROPYLANILINE.out Energy: -405.25496309
N -2.30570589 0.46640929 0.00000000
C -0.22732484 -1.67137178 0.00000000
C 0.06494831 -0.17117530 0.00000000
C 0.29907003 -2.36246453 1.27097489
C 0.29907003 -2.36246453 -1.27097489
C -0.96925690 0.80497859 0.00000000
C 1.39487956 0.27456493 0.00000000
C -0.61487291 2.17331484 0.00000000
C 1.73919600 1.62754839 0.00000000
C 0.71575691 2.57949780 0.00000000
H -1.32001420 -1.81971443 0.00000000
H -0.11609379 -1.89764797 2.17887347
H 1.39703339 -2.29566543 1.33684366
H 0.03002903 -3.43192460 1.27857718
H -0.11609379 -1.89764797 -2.17887347
H 0.03002903 -3.43192460 -1.27857718
H 1.39703339 -2.29566543 -1.33684366
H 2.19551972 -0.47076241 0.00000000
H -1.41287223 2.92227708 0.00000000
H 2.78802671 1.93243947 0.00000000
H 0.95179315 3.64712637 0.00000000
H -2.61568557 -0.49098440 0.00000000
H -3.00899120 1.18905062 0.00000000
