20
2-METHYLPENTANE.gamout	Energy:    -236.7308334
C          1.29623        1.62636        2.15953
C          0.43268        2.86421        1.89135
C         -1.06796        2.58593        1.99777
C          2.81793        1.81913        2.00748
C          3.39024        2.85916        2.98056
C          3.54791        0.47782        2.16121
H          0.97935        0.82218        1.46936
H          1.08421        1.24450        3.17758
H          0.66479        3.25519        0.88299
H          0.70168        3.67147        2.59463
H         -1.66452        3.49078        1.79774
H         -1.33820        2.22660        3.00565
H         -1.38570        1.81144        1.27881
H          3.00179        2.18455        0.97798
H          4.47935        2.96770        2.84715
H          3.21579        2.55468        4.02812
H          2.94046        3.85481        2.84400
H          3.39648        0.06016        3.17226
H          4.63402        0.58967        2.00817
H          3.18037       -0.26845        1.43748
