21
2-METHYL-2-PENTANOL.gamout	Energy:    -311.8610574
C          1.94894       -1.14930       -0.19183
C          0.91500       -0.01899       -0.06187
C          1.17381        1.06375       -1.12148
C         -0.50770       -0.60521       -0.16105
C         -1.65802        0.37997        0.06828
C         -3.02581       -0.30566        0.09492
O          1.00596        0.55336        1.24704
H          2.97287       -0.75592       -0.06752
H          1.77918       -1.90811        0.58748
H          1.89742       -1.64018       -1.17735
H          1.03608        0.67319       -2.14283
H          0.49701        1.91968       -0.98181
H          2.20997        1.43734       -1.04550
H         -0.61637       -1.09436       -1.14590
H         -0.57824       -1.40907        0.59357
H         -1.47909        0.90406        1.02108
H         -1.65740        1.15737       -0.71615
H         -3.24009       -0.81882       -0.85862
H         -3.07767       -1.06487        0.89411
H         -3.83788        0.41807        0.27203
H          1.87461        0.96864        1.33239
