15
2-METHYL-1-PROPANOL.gamout	Energy:    -233.3421606
O          1.05200        1.30785        0.84994
C         -1.27206        0.82223        0.50429
C          0.13782        0.24798        0.64573
C         -1.37803        1.75835       -0.70435
C         -2.31126       -0.30317        0.45275
H         -1.45118        1.42214        1.41647
H          0.15664       -0.46794        1.49424
H          0.38582       -0.33215       -0.27013
H         -2.36850        2.24026       -0.74896
H         -1.23427        1.20076       -1.64718
H         -0.61153        2.54579       -0.65610
H         -3.33370        0.10455        0.40278
H         -2.25292       -0.95161        1.34279
H         -2.16700       -0.94170       -0.43677
H          1.94488        0.94346        0.87979
