21
2-METHYL-CIS-3-HEXENE.gamout	Energy:    -274.7573956
C          4.51986        3.31750        2.31845
C          3.24188        3.53688        1.96898
C          5.30893        2.07605        2.66286
C          2.06780        2.60281        1.77775
C          1.56032        2.67999        0.32618
C          0.94232        2.95532        2.76758
C          4.64121        0.70051        2.64074
H          5.14495        4.21970        2.37298
H          2.97879        4.58870        1.78137
H          5.74734        2.24134        3.66662
H          6.18636        2.05667        1.98736
H          2.37408        1.56607        1.97177
H          0.69088        2.01863        0.17299
H          1.24629        3.70715        0.07040
H          2.34436        2.38504       -0.38943
H          0.59983        3.99495        2.62354
H          0.06954        2.29520        2.62875
H          1.28052        2.85870        3.81169
H          5.37419       -0.07652        2.91241
H          3.81059        0.63268        3.36100
H          4.24915        0.44581        1.64340
