26
2-METHYLHEPTANE.gamout	Energy:    -315.2432756
C          5.19878        2.34837        1.94903
C          4.10204        1.32112        2.25085
C          6.40420        1.82028        1.14513
C          2.91605        1.90365        3.02743
C          7.27115        2.98030        0.63816
C          7.25037        0.82185        1.94820
C          1.78894        0.89966        3.29019
C          0.60734        1.49220        4.06047
H          5.56687        2.78254        2.89886
H          4.74484        3.18847        1.39214
H          4.51955        0.47252        2.82210
H          3.73751        0.89110        1.29863
H          6.00356        1.28876        0.25977
H          2.50737        2.77171        2.47583
H          3.27592        2.30789        3.99275
H          6.69273        3.66859        0.00003
H          7.67523        3.56833        1.48109
H          8.12823        2.61594        0.04753
H          8.08245        0.42517        1.34317
H          6.65849       -0.03963        2.29561
H          7.68717        1.30691        2.83903
H          2.19492        0.03354        3.84511
H          1.43413        0.49448        2.32441
H          0.91960        1.86246        5.05188
H          0.16233        2.34353        3.51757
H         -0.18844        0.74649        4.21911
