16
2-METHYLBUTANAL.out Energy: -271.57268943
O -1.44533701 -1.67380985 -0.10830443
C 0.46034755 -0.18593630 -0.29965047
C 0.37308628 1.27224662 0.19528054
C 1.86201350 -0.77839459 -0.07920343
C -0.95117177 1.96884293 -0.12312718
C -0.56119617 -1.04745283 0.41792562
H 0.20459768 -0.22797193 -1.37200470
H 0.55547921 1.29235938 1.28612838
H 1.20824908 1.83547225 -0.25600030
H 2.11721749 -0.81729765 0.99350549
H 2.62397239 -0.15967295 -0.57879279
H 1.93720717 -1.80035770 -0.48233048
H -1.80794104 1.45844682 0.34655151
H -1.14007293 1.99173869 -1.20894596
H -0.94736772 3.00950924 0.23758601
H -0.42850534 -1.07174922 1.53736858
