18
2-METHYL-1-PENTENE.gamout	Energy:    -235.5077467
C          2.66870        2.21639        3.05608
C          2.15506        1.39543        1.88959
C          3.15521        1.40085        4.27242
C          0.89946        0.59276        2.13025
C          2.77484        1.39508        0.70027
C          4.34710        0.48816        3.98022
H          3.49020        2.86384        2.70495
H          1.86007        2.89084        3.39595
H          2.32011        0.80392        4.68039
H          3.42755        2.11438        5.07028
H          1.03769       -0.14340        2.94109
H          0.06975        1.24999        2.44809
H          0.58156        0.04879        1.22851
H          2.40049        0.80593       -0.14306
H          3.68169        1.98281        0.52586
H          4.10405       -0.26948        3.21726
H          5.20754        1.06565        3.60097
H          4.67565       -0.04244        4.88868
