12
2-METHYLTHIOPHENE.gamout	Energy:    -591.8823202
C          4.74293        2.67914        0.83062
C          3.31792        2.21331        0.78372
C          2.16930        2.94759        0.96201
S          2.92187        0.54157        0.46911
C          0.97117        2.17424        0.84727
C          1.22037        0.85323        0.58142
H          5.26446        2.50801       -0.12632
H          4.77572        3.75832        1.04329
H          5.32130        2.16362        1.61607
H          2.18291        4.01965        1.17110
H         -0.03370        2.58614        0.95806
H          0.50507        0.04299        0.44477
