19
2-METHYLPENTALDEHYDE.out Energy: -310.85822161
O -1.72490447 -1.90104870 -0.05869453
C 0.66148926 0.63517352 0.10259243
C 0.43856328 -0.83319611 -0.30938804
C -0.47946001 1.58489211 -0.27862832
C 1.68283269 -1.69631870 -0.03873666
C -0.21447617 3.03649959 0.12217689
C -0.74084717 -1.42064503 0.44282356
H 0.83400217 0.68185042 1.19510075
H 1.60110377 0.98570628 -0.36064614
H 0.18086576 -0.88319073 -1.38084815
H -1.42132704 1.24106011 0.18539815
H -0.64823930 1.52598534 -1.36876658
H 2.55656752 -1.29003815 -0.57216620
H 1.93008338 -1.71720382 1.03624813
H 1.53419201 -2.73508184 -0.37274088
H -1.04750410 3.69408829 -0.17254333
H 0.70060846 3.42395746 -0.35657372
H -0.08242278 3.13542474 1.21273614
H -0.62542224 -1.38794093 1.56396503
