13
2-NITROPROPANE.gamout	Energy:    -323.2281422
N         -0.74993        0.00022        0.00745
O         -1.62126        0.01030       -0.84252
O         -0.93319       -0.01220        1.21243
C          0.69893        0.00360       -0.47158
C          1.37415        1.27725        0.02759
C          1.37329       -1.27869        0.00594
H          0.60529        0.01304       -1.56572
H          1.40471        1.29419        1.12701
H          2.40557        1.31826       -0.35552
H          0.84313        2.17488       -0.32541
H          1.40400       -1.31401        1.10488
H          0.84152       -2.16989       -0.36191
H          2.40461       -1.31412       -0.37800
