25
2-OCTANONE.gamout	Energy:    -389.1781827
C          2.06929        2.24255        2.86791
C          2.64645        1.65845        4.15492
C          3.26994        2.70836        5.07979
C          1.51766        1.20122        1.89912
C          3.83532        2.12039        6.37620
C          0.84028        1.73261        0.64593
O          1.61534        0.01249        2.11260
C          4.52287        3.14811        7.28116
C          5.07062        2.55007        8.57820
H          1.26384        2.97039        3.08358
H          2.83414        2.82649        2.31952
H          1.84977        1.11321        4.69019
H          3.39843        0.89481        3.89227
H          2.51562        3.47918        5.32934
H          4.07483        3.24133        4.53886
H          4.55323        1.31586        6.12761
H          3.01894        1.62909        6.93824
H          1.51160        2.41464        0.09796
H         -0.05576        2.31642        0.91714
H          0.55017        0.89364       -0.00035
H          3.80848        3.95744        7.52199
H          5.34495        3.63125        6.72140
H          5.80829        1.75544        8.37328
H          4.26499        2.10168        9.18410
H          5.56831        3.31276        9.19889
