27
2-OCTANOL.gamout	Energy:    -390.3719703
H          0.37256       -4.70483        1.38743
H         -0.86568       -3.86709       -1.27705
H          0.22792       -7.03623        0.47152
H         -1.39351       -6.33192        0.67017
H         -0.65047       -6.42334       -0.95534
O          1.40889       -4.75952       -0.41709
H          2.02108       -5.42063       -0.06976
C         -0.44707       -6.24012        0.11231
C         -1.30154        1.32805       -0.85118
H         -1.71027       -3.83759        0.27951
C          0.18525       -4.86088        0.30241
C         -0.45838        0.19964       -0.24748
H         -0.04466       -2.18099        1.16668
H         -0.66150        2.93843        0.48504
C         -1.01942       -1.20250       -0.50347
H          0.57018        0.25776       -0.65071
H         -0.36059        0.36166        0.84297
C         -0.15758       -2.32836        0.07570
H         -2.04353       -1.26814       -0.08914
H         -1.12901       -1.35513       -1.59385
C         -0.71653       -3.72864       -0.19028
H          0.85942       -2.27336       -0.34720
C         -0.73090        2.72425       -0.59524
H          0.28373        2.82465       -1.01670
H         -1.35841        3.50876       -1.04880
H         -1.39720        1.16384       -1.94052
H         -2.32976        1.26819       -0.44899
