15
2-PENTENE.out Energy: -196.39871173
C 0.57774929 -1.30434783 0.15903409
C 0.00630203 0.06314998 0.41677739
C -0.48465334 -2.34059364 -0.23474525
C 0.30661317 1.17438661 -0.26689244
C -0.27161326 2.53676895 -0.01930857
H 1.09625767 -1.65880517 1.07024473
H 1.34831836 -1.23997144 -0.62829186
H -0.72987641 0.13006904 1.23134489
H -0.03681995 -3.33663601 -0.38187208
H -0.99051149 -2.05338982 -1.17057892
H -1.25952703 -2.43544555 0.54436580
H 1.03947185 1.10171815 -1.08290752
H 0.51890359 3.27302361 0.21081443
H -0.98599473 2.53140589 0.81882118
H -0.79789550 2.91769501 -0.91275331
