15
2-THIAPENTANE.gamout	Energy:    -556.2309106
S          1.38207       -0.76831        0.01373
C         -1.37563       -0.49429        0.00892
C         -0.08647        0.32859        0.00066
C         -2.63372        0.37728       -0.00132
C          2.70196        0.48472        0.00128
H         -1.37849       -1.16658       -0.86705
H         -1.37938       -1.14745        0.89919
H         -0.04599        0.97093       -0.89685
H         -0.04697        0.99037        0.88402
H         -2.67279        1.01819       -0.89833
H         -3.54562       -0.24128        0.00508
H         -2.67379        1.03782        0.88133
H          2.65593        1.12967        0.89358
H          2.65764        1.10966       -0.90521
H          3.65979       -0.05587        0.00821
