32
3,3,5-TRIMETHYLHEPTANE.gamout	Energy:    -393.7435185
C          1.55796        1.56649        0.18473
C          1.22519        0.08819       -0.10153
C          2.29226       -0.82105        0.58282
C          3.76491       -0.58557        0.23438
C         -0.14120       -0.33096        0.52595
C         -1.49075        0.05766       -0.12260
C         -2.61062       -0.78180        0.53694
C         -3.99529       -0.66853       -0.10528
C         -1.81305        1.55805       -0.05875
C          1.22705       -0.15872       -1.62184
H          2.55899        1.83029       -0.19168
H          0.84857        2.25189       -0.29857
H          1.54164        1.77612        1.26758
H          2.16728       -0.72286        1.67698
H          2.03847       -1.87073        0.34935
H          4.40245       -1.29986        0.78057
H          3.96854       -0.72620       -0.83972
H          4.10566        0.42491        0.50952
H         -0.13282       -1.43420        0.58060
H         -0.14982        0.01065        1.57866
H         -1.46064       -0.23532       -1.18887
H         -2.30123       -1.84184        0.52098
H         -2.67570       -0.50719        1.60710
H         -4.70886       -1.35572        0.37802
H         -4.41739        0.34550       -0.02148
H         -3.96329       -0.92691       -1.17795
H         -1.09987        2.16287       -0.63587
H         -2.81169        1.77058       -0.47073
H         -1.79585        1.92387        0.98295
H          2.20880        0.07298       -2.06511
H          0.99459       -1.21127       -1.85787
H          0.48525        0.47105       -2.13817
