19
3,3-DIMETHYL-1-PENTYNE.gamout	Energy:    -273.5130140
C         -0.11466        2.95257       -0.05669
C          0.77430        4.19511       -0.01060
C          2.31196        3.94384        0.01267
C          2.71805        3.19960       -1.19567
C          3.03439        5.31250        0.02127
C          2.72639        3.14332        1.26954
C          3.05652        2.59267       -2.18971
H         -1.17514        3.24132       -0.13605
H          0.12598        2.31970       -0.92588
H         -0.01306        2.33220        0.84832
H          0.52792        4.79613        0.88305
H          0.55202        4.83181       -0.88430
H          4.12744        5.18190        0.02412
H          2.75107        5.88331        0.92069
H          2.76312        5.90645       -0.86500
H          2.40493        3.67507        2.18051
H          2.28018        2.13817        1.27989
H          3.82016        3.02354        1.30989
H          3.35866        2.05630       -3.06929
