21
3,3-DIMETHYL-1-PENTENE.gamout	Energy:    -274.7560442
C          2.78846        0.81734        2.08600
C          2.27566        1.90727        3.07783
C          2.04107        1.20804        4.40763
C          3.35893        2.98719        3.30350
C          0.99571        2.57151        2.54449
C          3.17008        1.28135        0.67704
C          0.89994        1.08977        5.09285
H          2.00902        0.03890        2.01117
H          3.66416        0.32390        2.54533
H          2.94514        0.74776        4.83102
H          4.29974        2.54139        3.66818
H          3.02470        3.72243        4.05296
H          3.58393        3.53492        2.37459
H          0.59776        3.30210        3.26670
H          0.20632        1.82876        2.34429
H          1.19358        3.11217        1.60638
H          3.98671        2.02112        0.68743
H          3.51727        0.42478        0.07642
H          2.31942        1.72976        0.13954
H          0.87149        0.55183        6.04491
H         -0.04583        1.51480        4.74551
