17
3,4-DIMETHYLPYRIDINE.gamout	Energy:    -326.4716991
C          3.06312        0.18027       -0.19614
C          4.34214       -0.38820       -0.24750
C          1.94583       -0.64004       -0.01781
N          2.02783       -1.96495        0.10980
C          3.24537       -2.50945        0.06116
C          4.43827       -1.79128       -0.11362
C          5.76711       -2.50140       -0.15527
C          5.57160        0.46268       -0.43800
H          2.93592        1.26232       -0.29469
H          0.94059       -0.20201        0.02356
H          3.29125       -3.60184        0.16785
H          6.44254       -2.14917        0.64339
H          5.64000       -3.58738       -0.03191
H          6.28996       -2.33080       -1.11213
H          5.31422        1.52880       -0.52132
H          6.27356        0.34713        0.40538
H          6.12214        0.17373       -1.34958
