24
3,4-DIMETHYL-TRANS-3-HEXENE.gamout	Energy:    -314.0197888
C          5.62524        2.04096        1.99296
C          6.51879        1.81448        0.76167
C          4.26936        2.64407        1.65774
C          3.17061        1.90146        1.38405
C          4.28172        4.15633        1.64261
C          1.81475        2.50456        1.04872
C          3.15825        0.38920        1.39915
C          0.92097        2.73072        2.27990
H          5.51334        1.08905        2.53483
H          6.14932        2.72052        2.68857
H          7.51398        1.43987        1.05377
H          6.06900        1.08024        0.07375
H          6.66861        2.74768        0.19372
H          5.11122        4.53618        1.01940
H          4.45819        4.55145        2.66012
H          3.35353        4.60880        1.27083
H          1.29084        1.82509        0.35288
H          1.92664        3.45656        0.50701
H          4.08590       -0.06327        1.77229
H          2.98326       -0.00594        0.38139
H          2.32786        0.00936        2.02118
H          1.37070        3.46473        2.96812
H         -0.07412        3.10554        1.98772
H          0.77099        1.79737        2.84755
