12
3,4-DICHLORO-1-BUTENE.gamout	Energy:   -1075.7964509
C          0.66259        1.24706       -0.25177
C          2.01614        0.62172       -0.13177
C          2.52328       -0.05689       -1.40060
Cl         3.24820        1.93153        0.26195
C         -0.35358        0.99398        0.57641
Cl         1.51180       -1.49543       -1.80995
H          0.53681        1.94909       -1.08495
H          2.05212       -0.08113        0.71193
H          2.48666        0.63235       -2.25559
H          3.55480       -0.40494       -1.26400
H         -1.32799        1.47175        0.44325
H         -0.25085        0.29781        1.41526
