21
3,4-DIMETHYL-TRANS-2-PENTENE.gamout	Energy:    -274.7640821
C          4.50012        2.53960        1.99833
C          3.15774        1.87167        1.68931
C          2.08271        2.57594        1.28870
C          3.15848        0.37164        1.87016
C          4.41469        4.02423        2.37354
C          5.49830        2.34068        0.83872
C          0.71392        2.07202        0.92742
H          4.91616        2.00744        2.87573
H          2.19168        3.66305        1.20765
H          3.33507        0.11067        2.92951
H          2.21850       -0.10445        1.56142
H          3.97370       -0.10138        1.29570
H          5.39918        4.39228        2.70564
H          3.69404        4.19704        3.18833
H          4.11023        4.64753        1.51637
H          5.15005        2.86871       -0.06474
H          6.49285        2.73790        1.10194
H          5.62597        1.27882        0.57578
H          0.44858        2.36164       -0.10544
H          0.61368        0.98004        1.00206
H         -0.05661        2.52293        1.57892
