28
3,5,5-TRIMETHYLHEXANAL.out Energy: -428.70649723
O 1.40223590 3.44388610 0.15359580
C 0.39799146 -1.66775888 0.01414644
C 0.25482733 -0.15830410 0.37352514
C -0.88104515 0.69693768 -0.23213210
C -0.58245607 -2.55241542 0.81168790
C 0.20486714 -1.90581248 -1.49482039
C 1.83119985 -2.08982232 0.40178405
C -0.65697916 2.17779864 0.14895821
C -2.30126647 0.27087122 0.16197337
C 0.59204797 2.78399804 -0.44626421
H 0.21095414 -0.06680745 1.47487182
H 1.20481271 0.32563598 0.08405402
H -0.80749144 0.63615537 -1.33385150
H -1.63357136 -2.35593318 0.55985792
H -0.39081797 -3.61874131 0.60708131
H -0.46306872 -2.39648388 1.89662323
H -0.82487427 -1.69018375 -1.82132650
H 0.88661133 -1.27677372 -2.09132025
H 0.41518580 -2.95708303 -1.75134102
H 1.99095652 -3.16456888 0.21672457
H 2.02691512 -1.90155660 1.47044171
H 2.58442561 -1.53242631 -0.17888096
H -1.50228924 2.77860762 -0.23874851
H -0.62661479 2.31951244 1.24181866
H -2.41726989 0.23245078 1.25811392
H -3.04432974 0.98641679 -0.22613348
H -2.56457395 -0.71810498 -0.23810630
H 0.71863771 2.58773162 -1.54804816
