20
3,5-DIMETHYLANILINE.out Energy: -365.97822847
N 2.02923005 -1.95105733 0.00000000
C 0.35944743 1.35177656 0.00000000
C -1.33664659 -0.40280510 0.00000000
C -0.98907905 0.95324311 0.00000000
C 1.03533832 -0.99946876 0.00000000
C 1.35741756 0.37609557 0.00000000
C -0.32175899 -1.36974049 0.00000000
C 0.71488453 2.82004177 0.00000000
C -2.78462482 -0.83468398 0.00000000
H -1.77650681 1.71255501 0.00000000
H 2.40966537 0.67767357 0.00000000
H -0.58618344 -2.43239322 0.00000000
H 0.30067190 3.33106739 0.88548614
H 1.80385268 2.97684317 0.00000000
H 0.30067190 3.33106739 -0.88548614
H -3.02017523 -1.44855988 -0.88588517
H -3.02017523 -1.44855988 0.88588517
H -3.46494051 0.02968246 0.00000000
H 1.80518582 -2.93432064 0.00000000
H 3.00201516 -1.68543800 0.00000000
