19
3,5-XYLENOL.gamout	Energy:    -385.5842733
C          1.96218        1.82359        1.06028
C          0.65971        1.06528        0.95577
C          3.18985        1.13733        1.01753
C          1.96908        3.21638        1.17596
C          4.41012        1.81956        1.08282
C          3.18378        3.91564        1.24234
C          5.72527        1.07720        1.04407
C          4.39637        3.21992        1.19535
O          3.12280        5.27000        1.35490
H         -0.18135        1.64401        1.36692
H          0.41832        0.83574       -0.09732
H          0.71017        0.10512        1.49327
H          3.19093        0.04640        0.93235
H          1.03791        3.78671        1.21761
H          6.37041        1.44600        0.22884
H          6.28809        1.20790        1.98448
H          5.57449       -0.00189        0.89228
H          5.34078        3.77368        1.25073
H          4.01930        5.62838        1.39423
