32
3,5-DIMETHYLOCTANE.gamout	Energy:    -393.7463202
C          4.61965        3.20449        1.36064
C          4.18713        2.02221        2.26269
C          5.98083        3.88163        1.65128
C          2.64713        1.87638        2.30874
C          4.85453        0.68126        1.92021
C          6.01029        5.33543        1.12819
C          7.17923        3.11267        1.07735
C          1.95534        1.47064        1.00106
C          5.11379        6.32500        1.87630
C          0.43302        1.38443        1.13405
H          3.83812        3.97502        1.45936
H          4.59822        2.89837        0.29753
H          4.49154        2.28228        3.29396
H          6.10228        3.93051        2.75175
H          2.39335        1.13365        3.08764
H          2.21488        2.83292        2.65530
H          4.72131        0.41875        0.85761
H          5.93451        0.68815        2.12476
H          4.41790       -0.13392        2.52060
H          7.05122        5.70029        1.17944
H          5.74908        5.33304        0.05270
H          7.11212        3.04508       -0.02277
H          8.12573        3.62245        1.32030
H          7.25093        2.08848        1.46793
H          2.20892        2.18989        0.20202
H          2.34215        0.49358        0.66269
H          5.37147        6.36269        2.94864
H          5.22668        7.34321        1.47151
H          4.04510        6.06529        1.80494
H          0.13648        0.64418        1.89706
H         -0.03741        1.08543        0.18349
H         -0.00310        2.35392        1.42976
