32
3,6-DIMETHYLOCTANE.gamout	Energy:    -393.7503874
C          4.51849        3.17058        1.68225
C          5.92581        2.55865        1.83935
C          6.40241        2.43206        3.30182
C          6.94177        3.31292        0.97060
C          3.38568        2.41000        2.38719
C          6.56811        3.74352        4.07425
C          1.96043        2.86934        2.02152
C          0.88306        1.90588        2.55643
C          1.67310        4.29739        2.50500
C          0.87286        0.50910        1.92901
H          4.29506        3.21607        0.60049
H          4.53609        4.22204        2.02105
H          5.87112        1.52418        1.44918
H          7.36595        1.89200        3.29632
H          5.70350        1.77849        3.85104
H          7.95272        2.88577        1.07256
H          7.00132        4.38009        1.24318
H          6.66541        3.26584       -0.09533
H          3.48598        1.33799        2.14474
H          3.50524        2.48302        3.48426
H          6.89571        3.54719        5.10753
H          7.31971        4.40604        3.61499
H          5.62310        4.30814        4.13421
H          1.88378        2.86797        0.91572
H         -0.10354        2.37400        2.39418
H          0.99248        1.81532        3.65398
H          1.70795        4.35578        3.60734
H          0.67077        4.62704        2.18784
H          2.39800        5.02506        2.10937
H          1.77499       -0.07094        2.18181
H          0.81074        0.56308        0.82841
H          0.00505       -0.07217        2.27900
