26
3-(MMIM)PHO.gamout	Energy:    -610.2583791
H         -1.40508       -5.29557       -1.88622
C         -0.69875       -4.76309       -1.24024
H         -1.56318       -2.80747       -1.67926
H          2.45843       -1.72448       -1.13154
C         -0.81970       -3.36804       -1.11018
C          0.28914       -5.47782       -0.58594
H          2.76499        0.01614       -1.48105
C          2.44596       -0.70927       -0.71884
C          0.12834       -2.71256       -0.29065
C          1.28982       -4.85932        0.27836
N          1.08578       -0.38795       -0.29853
C          0.06317       -1.26812       -0.14189
H         -3.05714       -0.88996       -0.28774
C          1.13945       -3.41432        0.37885
C          0.63332        0.89526       -0.05846
N         -1.02916       -0.53247        0.19223
H          3.13656       -0.66942        0.13694
C         -0.68903        0.80633        0.24340
H          1.28608        1.76018       -0.13258
C         -2.34519       -1.05662        0.53489
H          1.83475       -2.90113        1.04806
H         -1.41142        1.57677        0.49655
H         -2.25844       -2.13505        0.71236
H         -2.71081       -0.55223        1.44115
O          2.18389       -5.48974        0.86883
H          0.35650       -6.56327       -0.70049
