12
3-CHLORO-1-BUTENE.gamout	Energy:    -616.3964408
C          1.86691        1.95986        2.47091
C          2.69215        2.08957        1.22742
C          3.46921        0.82792        0.87309
Cl         3.88565        3.47303        1.45896
C          0.54162        2.12322        2.51495
H          2.42051        1.69110        3.37919
H          2.05985        2.40638        0.38554
H          4.08537        0.98734       -0.02438
H          2.76701        0.00035        0.67815
H          4.13474        0.53278        1.69955
H         -0.03324        2.39507        1.62299
H         -0.01850        1.99530        3.44551
