17
3-CHLOROPENTANE.out Energy: -657.09787038
Cl -1.50594598 0.10943255 0.00000000
C 0.30085357 -0.23245027 0.00000000
C 0.92781866 0.32515648 1.27690058
C 0.92781866 0.32515648 -1.27690058
C 0.40581460 -0.28191560 2.57822406
C 0.40581460 -0.28191560 -2.57822406
H 0.36258843 -1.33265848 0.00000000
H 2.01650369 0.14879947 1.19836507
H 0.79233357 1.42053712 1.28442489
H 2.01650369 0.14879947 -1.19836507
H 0.79233357 1.42053712 -1.28442489
H 0.92638190 0.14887980 3.44769696
H 0.56215314 -1.37345175 2.60203602
H -0.67151764 -0.09493938 2.69768243
H -0.67151764 -0.09493938 -2.69768243
H 0.92638190 0.14887980 -3.44769696
H 0.56215314 -1.37345175 -2.60203602
