9
3-CHLOROPROPENE.gamout	Energy:    -577.1359372
C         -1.33995       -0.12458        0.42271
C         -0.21315        0.34535       -0.12026
C          1.11379       -0.33128       -0.01552
Cl         2.32851        0.72676        0.83886
H         -2.29299        0.39731        0.29970
H         -1.35242       -1.04997        1.00888
H         -0.22723        1.27932       -0.69461
H          1.05330       -1.27162        0.54893
H          1.54833       -0.53058       -1.00605
