26
3-ETHYLHEXANE.gamout	Energy:    -315.2364264
C          4.25402        2.63033        1.25422
C          2.76998        2.63545        1.68156
C          2.07180        1.32519        1.22480
C          2.04342        3.90108        1.18012
C          5.11898        3.78131        1.78205
C          1.13970        0.69020        2.26165
C          0.57870        4.04765        1.60023
C          6.60264        3.61830        1.44449
H          4.30888        2.60839        0.14818
H          4.70318        1.67892        1.59427
H          2.75301        2.65831        2.78973
H          1.51300        1.51379        0.28964
H          2.84409        0.58255        0.95865
H          2.10910        3.92298        0.07531
H          2.59236        4.79036        1.53276
H          4.99793        3.84999        2.87955
H          4.76302        4.74360        1.37557
H          0.32209        1.36629        2.55688
H          1.69157        0.42488        3.17961
H          0.68140       -0.23485        1.87394
H         -0.05806        3.25034        1.18445
H          0.46754        4.02312        2.69785
H          0.16610        5.00780        1.24934
H          7.01401        2.68951        1.87554
H          6.76465        3.57230        0.35380
H          7.20190        4.45817        1.83244
