29
3-ETHYL-4-METHYLHEXANE.gamout	Energy:    -354.4911979
C          2.40256        3.93390        2.54448
C          3.67691        3.12698        2.14834
C          3.36695        1.66312        1.75947
C          4.78479        3.19875        3.22315
C          1.54361        3.22993        3.61734
C          1.57296        4.31545        1.30825
C          4.44053        0.99361        0.89573
C          5.47587        4.55909        3.35359
C          0.52643        4.13665        4.31801
H          2.75688        4.88140        2.99044
H          4.08070        3.62059        1.24282
H          2.41019        1.62216        1.21177
H          3.21144        1.06730        2.67684
H          5.55324        2.44143        2.99345
H          4.36561        2.90066        4.20142
H          2.20538        2.79348        4.38512
H          1.01386        2.37597        3.15846
H          1.19845        3.42372        0.77762
H          0.69751        4.92700        1.57716
H          2.17329        4.90013        0.59182
H          4.58486        1.53794       -0.05311
H          5.41867        0.95094        1.40201
H          4.15963       -0.04225        0.64428
H          5.95023        4.85817        2.40325
H          4.77418        5.36050        3.63712
H          6.26492        4.53301        4.12282
H         -0.21607        4.55020        3.61664
H          1.02394        4.98824        4.81292
H         -0.02978        3.58237        5.09144
