21
3-HEXANOL.gamout	Energy:    -311.8599263
C          3.10005        0.26405        0.19221
C          1.73762        0.78868       -0.26143
C          0.55572       -0.05230        0.24269
C         -0.80056        0.52948       -0.17727
C         -2.00684       -0.24881        0.35593
C         -3.34993        0.31242       -0.11358
O          0.68545       -1.41488       -0.15044
H          3.19199        0.29663        1.29098
H          3.23463       -0.78370       -0.11685
H          3.92413        0.86010       -0.23136
H          1.59873        1.83211        0.07318
H          1.69413        0.82042       -1.36806
H          0.59492       -0.08362        1.34743
H         -0.85395        1.58144        0.15833
H         -0.84026        0.56618       -1.28465
H         -1.90660       -1.30351        0.05023
H         -1.97150       -0.25406        1.46087
H         -3.48689        1.35796        0.21209
H         -3.42765        0.29968       -1.21431
H         -4.19425       -0.27278        0.28546
H          0.66319       -1.44435       -1.11801
