24
3-HEPTANOL.out Energy: -351.35717245
O 1.36657212 -1.29526894 -0.34146140
C -0.59288189 0.16157819 -0.19420410
C 0.07343819 -1.15200815 0.23648535
C 0.17070190 1.42339448 0.21654441
C -0.74026137 -2.37852060 -0.17719817
C -0.50565419 2.72635106 -0.22269670
C -0.14082800 -3.70263748 0.29536019
C 0.25857861 3.98438067 0.19141127
H -0.71186984 0.14288128 -1.29250836
H -1.61081920 0.19683039 0.23409084
H 0.15839910 -1.15193619 1.34581301
H 1.18875137 1.39135054 -0.21495369
H 0.30161477 1.43364160 1.31574824
H -0.82084792 -2.37551605 -1.27886969
H -1.76627977 -2.26189820 0.21260628
H -0.63101810 2.71371972 -1.32049996
H -1.52856234 2.76070897 0.19453306
H 0.88219442 -3.82067998 -0.09080609
H -0.09107054 -3.75013128 1.39654166
H -0.74173381 -4.55944806 -0.04837560
H -0.25604984 4.89910259 -0.14304718
H 0.36617556 4.04628155 1.28745638
H 1.27359902 3.99781303 -0.24033500
H 1.95374568 -0.63906999 0.05240642
