12
3-HYDROXYPROPIONIC_ACID.out Energy: -343.35549862
O -0.64707641 -1.92553751 0.54826457
O -0.86412532 1.82946750 -0.33786666
O 0.74008809 1.03093402 1.00763971
C 0.11304625 -0.25119537 -0.94678333
C 0.45756947 -1.55814319 -0.25333143
C 0.04645992 0.90715270 0.02886434
H 0.88881545 -0.00469161 -1.69323889
H -0.84189054 -0.33692869 -1.48575209
H 1.36990177 -1.40515325 0.35205986
H 0.68075533 -2.32947426 -1.01810568
H -0.34907693 -2.55437526 1.21618549
H -0.81724318 2.54385622 0.32145745
