50
3-METHYLPENTADECANE.gamout	Energy:    -629.2886959
C         85.92276       29.93767       -0.07502
C         84.61962       29.12717       -0.12600
C         85.71385       31.45645       -0.13436
C         84.84177       27.60932       -0.10015
C         87.00868       32.27502       -0.03991
C         83.59265       26.71334        0.02011
C         86.79241       33.79290       -0.11416
C         82.57136       26.91168       -1.12423
C         84.02251       25.24211        0.11821
C         88.07740       34.62213        0.01561
C         81.46894       27.93747       -0.84235
C         87.85134       36.13842       -0.06679
C         89.12710       36.97707        0.08951
C         88.89461       38.49163        0.00435
C         90.16395       39.33257        0.17812
C         89.91717       40.84048        0.09136
H         86.47080       29.68040        0.85088
H         86.58094       29.62623       -0.90830
H         84.05887       29.41013       -1.03430
H         83.98248       29.42086        0.72930
H         85.18505       31.71486       -1.07119
H         85.03504       31.76129        0.68490
H         85.51099       27.37196        0.74725
H         85.39857       27.31255       -1.01009
H         87.52395       32.02780        0.90747
H         87.69952       31.96392       -0.84647
H         83.08552       26.97237        0.97012
H         86.29096       34.04291       -1.06827
H         86.08572       34.09586        0.68191
H         83.10747       27.18141       -2.05336
H         82.08717       25.94317       -1.33809
H         83.15819       24.58382        0.30110
H         84.74506       25.08379        0.93505
H         84.50255       24.90666       -0.81823
H         88.56846       34.38107        0.97744
H         88.79362       34.31623       -0.77063
H         80.77734       28.02211       -1.69598
H         80.87341       27.64125        0.03785
H         81.87170       28.94213       -0.64207
H         87.37013       36.38283       -1.03281
H         87.12417       36.43714        0.71226
H         89.60173       36.73862        1.06031
H         89.86042       36.67715       -0.68321
H         88.42690       38.73494       -0.96878
H         88.15528       38.78781        0.77304
H         90.62806       39.09348        1.15306
H         90.90607       39.03726       -0.58686
H         90.85051       41.40948        0.22617
H         89.49283       41.12381       -0.88720
H         89.20767       41.17712        0.86668
