13
3-METHOXYPROPIONITRILE.out Energy: -286.36734181
O -0.26538864 1.10753946 0.38391207
N -0.99820172 -2.51808238 -0.16724596
C 0.78433773 0.51767422 -0.32842543
C 1.01975073 -0.88792594 0.22741823
C -0.62443290 2.38697723 -0.07149263
C -0.11193735 -1.79524791 0.01636518
H 0.55495637 0.46210262 -1.41285080
H 1.72259768 1.10270496 -0.22324536
H 1.21989164 -0.81985467 1.30954966
H 1.91396654 -1.32733343 -0.24444348
H -0.96192684 2.37165949 -1.12730797
H 0.21566002 3.10665549 0.00972440
H -1.45330749 2.74380418 0.55639419
