21
3-METHYLPENTANOL.gamout	Energy:    -311.8507839
O         -0.73551        0.89019        3.32716
C          0.67434        0.28320       -0.18976
C         -0.11352        0.04658        1.11272
C          0.82798       -1.00953       -1.01769
C          0.05121        1.39397       -1.04931
C         -0.17045        1.23394        2.07635
C          1.64794       -2.12258       -0.36138
H          1.69399        0.61180        0.09507
H         -1.14790       -0.26078        0.85688
H          0.32538       -0.79365        1.67551
H          1.29980       -0.74200       -1.98019
H         -0.17933       -1.38828       -1.27528
H          0.03334        2.36461       -0.52970
H          0.61771        1.53478       -1.98439
H         -0.98820        1.14328       -1.32588
H          0.85413        1.58329        2.29159
H         -0.70647        2.08876        1.61729
H          1.77794       -2.97378       -1.04928
H          1.16961       -2.51400        0.55065
H          2.65421       -1.76618       -0.08199
H         -1.65050        0.61845        3.17630
