20
3-METHYLISOQUINOLINE.gamout	Energy:    -440.6522236
C         -2.62430       -1.49687        1.43356
C         -2.61892       -2.76153        2.25090
C         -1.64739       -1.21289        0.49515
N         -3.66019       -0.64098        1.67836
C         -1.69850       -0.00318       -0.24899
C         -3.73027        0.48211        1.00522
C         -2.78694        0.88634        0.01548
C         -0.73671        0.36682       -1.23065
C         -2.88702        2.11037       -0.69873
C         -0.85764        1.56225       -1.90978
C         -1.93924        2.44296       -1.64464
H         -3.54707       -3.33091        2.07725
H         -1.76002       -3.40624        2.01345
H         -2.59310       -2.51927        3.32622
H         -0.82940       -1.91742        0.32084
H         -4.57774        1.14596        1.22939
H          0.09870       -0.30775       -1.43886
H         -3.72423        2.78221       -0.48711
H         -0.11348        1.83809       -2.66207
H         -2.01592        3.38479       -2.19412
