18
3-METHYL-1-BUTANOL.gamout	Energy:    -272.5961178
C          2.48674        0.72438        1.53931
C          2.61542        1.73200        2.69684
C          1.05843        0.37505        1.11833
C          2.01137        1.21233        4.00991
C          4.08091        2.14197        2.89496
O          1.01528       -0.43170       -0.04310
H          3.02100       -0.20849        1.81194
H          3.00133        1.12289        0.64763
H          2.05360        2.64039        2.40331
H          0.51080        1.29976        0.86622
H          0.50589       -0.09871        1.95483
H          2.16061        1.93843        4.82585
H          2.48958        0.26563        4.31884
H          0.92872        1.02749        3.92818
H          4.18135        2.90224        3.68712
H          4.69902        1.27475        3.18716
H          4.51110        2.56002        1.97006
H          1.46923       -1.26141        0.15532
