29
3-METHYLOCTANE.gamout	Energy:    -354.4980460
C          4.47246        0.61924        0.21720
C          3.24823       -0.29848        0.20936
C          1.91618        0.45599        0.14439
C          0.68343       -0.45530        0.14120
C         -0.64133        0.31264        0.07497
C         -1.91710       -0.54895       -0.01606
C         -3.14327        0.34795       -0.28404
C         -4.44883       -0.39051       -0.58914
H          4.45329        1.30521        1.08131
H          5.41112        0.04407        0.27103
H          4.51475        1.24011       -0.69398
H          3.31442       -0.99385       -0.64773
H          3.26018       -0.93572        1.11294
H          1.85051        1.15255        1.00168
H          1.90276        1.09413       -0.75960
H          0.74761       -1.14935       -0.71828
H          0.71091       -1.09064        1.04421
H         -0.72303        0.97799        0.95621
H         -0.61167        0.98396       -0.80311
H         -3.29049        1.01840        0.58398
H         -2.90610        1.01207       -1.13473
H         -4.33137       -1.07255       -1.44872
H         -4.80027       -0.99146        0.26468
H         -5.25408        0.31962       -0.83901
C         -2.10965       -1.43061        1.22645
H         -1.80193       -1.22014       -0.89066
H         -2.22690       -0.81034        2.13288
H         -1.25235       -2.10173        1.38987
H         -3.00297       -2.06874        1.14129
