18
3-METHYL_SULFOLANE.gamout	Energy:    -744.4887165
O          0.95446       -3.02128       -0.36956
S          0.87561       -2.10113        0.77351
O          0.33229       -2.53508        2.06809
C          0.03779       -0.54732        0.24548
C          2.52202       -1.31103        1.04240
C          0.98222        0.59669        0.63747
C          2.41575        0.06767        0.39296
C          0.68371        1.90074       -0.10120
H         -0.94258       -0.52711        0.74033
H         -0.08885       -0.62912       -0.84472
H          2.65310       -1.26254        2.13284
H          3.27352       -1.97903        0.60080
H          0.87014        0.77086        1.72349
H          2.59481       -0.01093       -0.69388
H          3.17100        0.75951        0.79939
H         -0.33916        2.25595        0.10209
H          1.38169        2.69586        0.20819
H          0.78422        1.76957       -1.19192
