16
3-METHYLTHIACYCLOPENTANE.gamout	Energy:    -594.2913831
C          6.28697        2.41047       -1.87758
C          6.04951        1.40995       -0.74407
C          6.90639        1.66729        0.50589
C          6.68326        0.49487        1.46233
S          6.53988       -1.01750        0.40358
C          6.33856       -0.04345       -1.15358
H          5.65842        2.18173       -2.75356
H          6.04985        3.43793       -1.55648
H          7.34034        2.39531       -2.20605
H          4.98733        1.46548       -0.44070
H          7.97051        1.71407        0.21254
H          6.65297        2.62910        0.98386
H          7.51228        0.35960        2.17284
H          5.75397        0.61890        2.04140
H          7.26800       -0.10646       -1.74420
H          5.52407       -0.48064       -1.75106
