16
3-METHYLBUTANAL.out Energy: -271.57075091
O -0.28767104 2.37495146 -0.34151222
C -0.06015885 -1.01461946 0.42169861
C 0.35092313 0.40568216 0.89202642
C -1.46504527 -1.02296443 -0.19414795
C 0.97309368 -1.65627086 -0.51562619
C 0.44976486 1.42857688 -0.21600098
H -0.09477348 -1.62895707 1.33927271
H 1.34165063 0.34474196 1.37957696
H -0.37419533 0.78627080 1.62854462
H -1.50389245 -0.42975698 -1.12330373
H -1.77847384 -2.04973499 -0.44261062
H -2.21112858 -0.60011315 0.49743526
H 1.98411681 -1.64349470 -0.07638839
H 1.02365522 -1.14176936 -1.48948371
H 0.71160566 -2.70713494 -0.71875594
H 1.28144440 1.26025968 -0.95253904
