21
3-METHYL-TRANS-2-HEXENE.gamout	Energy:    -274.7664332
C          0.48861        3.04815        1.48243
C          1.91763        2.91928        2.01302
C          2.85604        2.18381        1.03759
C          4.29076        2.04943        1.51149
C          5.27407        2.72838        0.89022
C          4.50599        1.12611        2.68654
C          6.74330        2.75114        1.19874
H          0.03678        2.05848        1.29752
H          0.46305        3.60352        0.52929
H         -0.16162        3.58155        2.19482
H          1.89855        2.39256        2.98327
H          2.33269        3.92269        2.21574
H          2.84198        2.71249        0.06898
H          2.43826        1.17537        0.84780
H          4.97782        3.35688        0.03933
H          4.08552        0.12662        2.47404
H          3.98816        1.49456        3.58938
H          5.56524        0.99546        2.94592
H          7.33561        2.42972        0.32288
H          7.02195        2.10630        2.04438
H          7.08006        3.77627        1.43760
