16
3-METHYL-TRANS-1,3-PENTADIENE.gamout	Energy:    -234.2831887
C          1.94754        0.60294        4.12718
C          2.87822        1.09540        3.08341
C          2.45879        1.83520        2.03352
C          4.33984        0.71653        3.25909
C          0.62020        0.78224        4.22521
C          3.30293        2.38195        0.92233
H          2.42785        0.01417        4.91838
H          1.39106        2.07455        1.96549
H          4.70031        0.07346        2.43804
H          4.99509        1.60270        3.28520
H          4.49851        0.16435        4.19728
H          0.06176        0.35393        5.06163
H          0.04125        1.35197        3.49217
H          4.36003        2.09067        0.99973
H          2.93074        2.04072       -0.06092
H          3.25957        3.48668        0.89803
