24
3-METHYL-CIS-3-HEPTENE.gamout	Energy:    -314.0220547
C          2.04464        0.83141       -0.70220
C          2.13290       -0.59019       -0.12130
C          2.61093       -0.63241        1.31795
C          1.79632       -0.78572        2.37939
C          0.30284       -0.96708        2.40082
C         -0.13683       -2.29978        3.03532
C         -1.65574       -2.45178        3.13313
C          4.10131       -0.47252        1.50805
H          1.73091        0.80968       -1.75890
H          3.01429        1.35390       -0.65767
H          1.31525        1.44119       -0.14467
H          2.82887       -1.18529       -0.74078
H          1.14911       -1.07524       -0.21663
H          2.26674       -0.79314        3.37268
H         -0.12374       -0.88808        1.38740
H         -0.14927       -0.14133        2.98478
H          0.30968       -2.38398        4.04291
H          0.28592       -3.13279        2.44580
H         -2.10171       -1.64826        3.74399
H         -1.93771       -3.41338        3.59196
H         -2.12789       -2.40758        2.13696
H          4.65324       -1.28982        1.00876
H          4.38095       -0.47139        2.57230
H          4.47046        0.46825        1.06198
