17
3-NITROBENZOIC_ACID.gamout	Energy:    -624.5471655
O          8.14832        2.73495       -1.77421
C          6.92618        3.08161       -1.32839
O          6.51448        4.21655       -1.35660
C          6.14912        1.91736       -0.80189
C          6.67620        0.61934       -0.79285
C          4.85642        2.15451       -0.30690
C          5.89041       -0.41298       -0.28478
C          4.08922        1.10222        0.19691
N          6.44036       -1.78881       -0.27104
C          4.60359       -0.19658        0.21181
O          5.72942       -2.67230        0.17887
O          7.56716       -1.94887       -0.70939
H          8.57383        3.54906       -2.09374
H          7.67472        0.40731       -1.17101
H          4.47254        3.17650       -0.32741
H          3.08440        1.29126        0.58125
H          4.03168       -1.04049        0.59792
