28
3-NONANONE.out Energy: -428.72864029
O -1.33397433 -2.41507985 0.00000000
C 0.55414539 1.48856018 0.00000000
C -0.23783769 0.17819693 0.00000000
C -0.32927462 2.73955777 0.00000000
C 0.64648534 -1.06648929 0.00000000
C 0.45532528 4.05519091 0.00000000
C -0.12238290 -2.38263997 0.00000000
C -0.43451472 5.29902937 0.00000000
C 0.71194384 -3.65958131 0.00000000
C -0.11878384 -4.93781607 0.00000000
H 1.22269588 1.51540340 -0.88118738
H 1.22269588 1.51540340 0.88118738
H -0.90718722 0.14223364 -0.87627340
H -0.90718722 0.14223364 0.87627340
H -0.99746211 2.71305534 -0.88097955
H -0.99746211 2.71305534 0.88097955
H 1.32347153 -1.07117084 -0.87535370
H 1.32347153 -1.07117084 0.87535370
H 1.12287522 4.07935448 0.88084542
H 1.12287522 4.07935448 -0.88084542
H 0.16243418 6.22509238 0.00000000
H -1.08792886 5.32459982 -0.88829600
H -1.08792886 5.32459982 0.88829600
H 1.38645424 -3.61903771 0.87546087
H 1.38645424 -3.61903771 -0.87546087
H -0.77197636 -4.98337629 0.88423785
H 0.52831528 -5.82827773 0.00000000
H -0.77197636 -4.98337629 -0.88423785
