25
3-OCTANONE.out Energy: -389.44317182
O -1.31810450 1.85329920 0.00000000
C -0.31854445 -0.77375145 0.00000000
C 0.41665941 -2.11664010 0.00000000
C 0.61336895 0.43606373 0.00000000
C -0.52338826 -3.32670211 0.00000000
C -0.10840689 1.77905765 0.00000000
C 0.76817814 3.02756114 0.00000000
C 0.20392889 -4.67207397 0.00000000
C -0.02120525 4.33202918 0.00000000
H -0.98615825 -0.71063123 0.87607312
H -0.98615825 -0.71063123 -0.87607312
H 1.08317418 -2.17413411 -0.88141218
H 1.08317418 -2.17413411 0.88141218
H 1.28983576 0.41561246 0.87554567
H 1.28983576 0.41561246 -0.87554567
H -1.18879194 -3.26607278 -0.88036897
H -1.18879194 -3.26607278 0.88036897
H 1.44101304 2.96548467 0.87552457
H 1.44101304 2.96548467 -0.87552457
H -0.50536197 -5.51519382 0.00000000
H 0.84850783 -4.78095944 -0.88854432
H 0.84850783 -4.78095944 0.88854432
H -0.67271220 4.39838243 0.88412845
H -0.67271220 4.39838243 -0.88412845
H 0.65399321 5.20135091 0.00000000
