33
3-THIAUNDECANE.gamout	Energy:    -791.7690679
S         -3.96792       -0.73210       -0.00918
C          1.36179       -0.41748        0.00244
C          2.62575        0.44859        0.01086
C          0.06074        0.39160        0.00672
C          3.93103       -0.35295        0.00629
C         -1.20442       -0.47451       -0.00200
C          5.19292        0.51706        0.01463
C         -2.49039        0.35245        0.00214
C          6.49408       -0.28719        0.00971
C         -5.28431        0.54559       -0.00097
C         -6.66350       -0.10652       -0.00951
H          1.37470       -1.09183        0.87920
H          1.37714       -1.07829       -0.88452
H          2.60765        1.10992        0.89771
H          2.60999        1.12345       -0.86581
H          0.04523        1.05190        0.89409
H          0.04806        1.06535       -0.87055
H          3.94865       -1.02790        0.88302
H          3.95077       -1.01421       -0.88075
H         -1.20131       -1.14483        0.87624
H         -1.19847       -1.13130       -0.89037
H          5.17253        1.19153       -0.86141
H          5.17050        1.17765        0.90111
H         -2.52512        1.01216       -0.88266
H         -2.52848        0.99837        0.89689
H          6.56492       -0.93025       -0.88407
H          6.56292       -0.94439        0.89335
H          7.37766        0.37176        0.01599
H         -5.15414        1.19313       -0.88481
H         -5.15795        1.17827        0.89413
H         -6.80372       -0.73167       -0.90599
H         -6.80792       -0.74651        0.87574
H         -7.45284        0.66276       -0.00504
