19
4,4-DIMETHYL-2-PENTYNE.gamout	Energy:    -273.5252480
C          2.39322        3.23035        0.73160
C          2.16007        2.17692        1.83948
C          0.79404        2.43167        2.51798
C          2.17339        0.76056        1.21834
C          3.23690        2.28068        2.84588
C          4.12263        2.36844        3.67098
C          5.18868        2.47329        4.66510
H          3.36200        3.06930        0.23343
H          2.39110        4.24932        1.14940
H          1.59856        3.16838       -0.03075
H          0.75861        3.43559        2.96937
H         -0.02006        2.35713        1.77769
H          0.60420        1.69461        3.31395
H          3.13778        0.55391        0.72845
H          2.01130       -0.00953        1.98870
H          1.37543        0.66659        0.46272
H          5.88232        3.29741        4.42627
H          4.78148        2.66348        5.67264
H          5.78194        1.54455        4.71638
