21
4,4-DIMETHYL-TRANS-2-PENTENE.gamout	Energy:    -274.7639817
C          3.06335        1.59692        1.73333
C          1.73159        2.05717        2.30337
C          4.25452        2.20275        1.81274
C          1.83748        3.39462        3.05360
C          1.21450        0.96816        3.27214
C          0.72926        2.20488        1.13480
C          5.52900        1.67510        1.21628
H          3.00902        0.64093        1.19135
H          4.34103        3.15722        2.34618
H          2.18921        4.20255        2.39191
H          0.85175        3.69083        3.44803
H          2.53192        3.32721        3.90678
H          0.21953        1.23508        3.66673
H          1.89893        0.84046        4.12658
H          1.12418       -0.00735        2.76575
H         -0.27154        2.47964        1.50895
H          0.63072        1.26112        0.57295
H          1.05735        2.98431        0.42820
H          5.36966        0.71677        0.69683
H          5.95810        2.38872        0.49010
H          6.29998        1.51786        1.99190
