21
4,4-DIMETHYL-CIS-2-PENTENE.gamout	Energy:    -274.7566450
C          3.21848        1.90879        2.48871
C          1.73369        2.06756        2.14212
C          4.19521        2.82594        2.57482
C          1.08013        0.67007        2.19346
C          1.01631        2.97361        3.16871
C          1.55064        2.63591        0.71642
C          4.15201        4.31267        2.36006
H          3.52449        0.87651        2.70053
H          5.18917        2.44467        2.84535
H          1.17942        0.22361        3.19667
H          0.00550        0.72523        1.95387
H          1.55078       -0.01720        1.47082
H          1.41473        3.99913        3.16650
H         -0.06257        3.03327        2.94441
H          1.12736        2.57619        4.19051
H          1.97252        3.64678        0.61559
H          0.47919        2.69279        0.45869
H          2.04446        1.99284       -0.02980
H          4.47929        4.84464        3.27150
H          4.85556        4.60993        1.56170
H          3.15904        4.69345        2.08954
