24
4,4-DIMETHYL-1-HEXENE.gamout	Energy:    -314.0118635
C          0.87051        3.20324        2.22324
C          1.75295        2.14722        1.55081
C          3.25804        2.11149        1.93700
C          3.91474        3.48235        1.58541
C          3.42749        1.81021        3.43742
C          3.91665        0.98009        1.12225
C          5.40500        3.57369        1.77241
C          6.02515        4.36755        2.65177
H         -0.17352        3.09877        1.88556
H          1.18611        4.23063        1.98050
H          0.86734        3.10584        3.32079
H          1.68629        2.27411        0.45467
H          1.33017        1.14823        1.76301
H          3.43653        4.27389        2.18545
H          3.67891        3.70231        0.52632
H          2.98109        2.59567        4.06815
H          2.94790        0.85279        3.70229
H          4.49256        1.74088        3.70881
H          4.97423        0.83940        1.39498
H          3.87021        1.18456        0.03889
H          3.40145        0.02183        1.30166
H          6.02005        2.94195        1.11876
H          5.46222        5.02509        3.32367
H          7.11590        4.39540        2.73166
