20
4,4-DIMETHYL-1,3-DIOXANE.out Energy: -386.01582113
O -1.14054903 -0.11944199 0.39005441
O -0.11590320 1.97803378 0.30686593
C 0.03691491 -0.86397226 0.01027487
C 1.28011960 0.00356759 0.31996053
C 1.10202173 1.43959562 -0.17571742
C 0.01141092 -2.11044325 0.89260460
C -0.03776864 -1.26738994 -1.47184149
C -1.20562468 1.19373886 -0.08798924
H 2.18473167 -0.44850626 -0.11994641
H 1.41804051 0.03289141 1.41304014
H 1.91000370 2.08847661 0.19428421
H 1.12370289 1.48417189 -1.28490718
H 0.90028169 -2.73576039 0.71450640
H -0.01227352 -1.82159209 1.95394573
H -0.88790111 -2.70892391 0.68027302
H -0.98251865 -1.79817750 -1.66527477
H 0.01149425 -0.40530891 -2.15333197
H 0.79650261 -1.93875001 -1.72913177
H -2.10847948 1.64476204 0.34819658
H -1.28962959 1.20686332 -1.19845538
