52
4-(MMIM)PHO-4-(MMIM)PHO.out Energy: -1221.31387241
N 0.30907040 -3.16174705 0.69815124
N 1.22473022 -3.28815251 -1.28117479
C 1.18072753 -2.52857841 -0.14304164
C -0.21185937 -4.28044414 0.07433982
C 0.35227544 -4.36171016 -1.15761247
C -0.13980991 -2.70396098 2.00914116
C 2.12149666 -3.09731797 -2.40849708
H -0.98283651 -4.88198817 0.54496221
H 0.20696073 -5.08049222 -1.95835763
H -0.08584018 -1.61045264 2.04491800
H 0.48785283 -3.12851142 2.80785216
H -1.19084097 -3.00080157 2.12529545
H 3.00893835 -2.54369369 -2.07641093
H 2.42832557 -4.08156330 -2.79002194
H 1.63855594 -2.53514376 -3.22288342
C 1.84965781 -1.27420466 0.07522092
C 2.36452551 -0.89138840 1.35045965
C 2.83494223 0.37871703 1.59038109
C 2.78652290 1.43481733 0.58621531
C 2.36197495 0.98426535 -0.73140260
C 1.90299395 -0.29134000 -0.96067535
H 2.41013056 -1.63286645 2.15294841
H 3.23555548 0.64847480 2.57161851
H 1.50444368 -0.53230141 -1.94970297
H 2.35747907 1.73150226 -1.53005548
O 3.03643029 2.63327824 0.84632219
H -2.44403990 4.08418372 -2.77334162
H -3.02054599 2.54555604 -2.05797310
C -2.13497579 3.09961645 -2.39437881
H -0.21817884 5.08268088 -1.95274373
C -0.35905376 4.36316806 -1.15183940
N -1.23209163 3.28961865 -1.27172899
H -1.65640725 2.53825944 -3.21191875
H -2.39916264 1.63098694 2.16745492
C 0.21166492 4.28090798 0.07705001
C -1.18197225 2.52898754 -0.13444562
C -2.35768059 0.89021833 1.36399663
C -2.82668882 -0.38013016 1.60528170
C -1.84958956 1.27431062 0.08631211
H -3.22195370 -0.65072192 2.58837907
N -0.30588694 3.16161133 0.70274756
H 0.98514639 4.88212539 0.54420709
H -0.47259466 3.12688674 2.81346241
C -2.78359071 -1.43540242 0.59997215
C -1.90836399 0.29219674 -0.95014948
C -2.36608152 -0.98360572 -0.71954319
O -3.03196835 -2.63384256 0.86037442
C 0.15031340 2.70253652 2.01086758
H -1.51494081 0.53419521 -1.94103295
H -2.36578676 -1.73009620 -1.51878767
H 1.20224737 2.99873571 2.12120299
H 0.09579322 1.60896394 2.04599491
