17
4-AMINO-2-NITROPHENOL.gamout	Energy:    -566.6039009
O          1.48595       -2.15443        0.03215
O          1.88143        1.97052        0.04525
O          2.86940        0.04904        0.05281
N          1.86951        0.74510        0.04266
N         -2.97175        1.23419       -0.01324
C          0.55149        0.08095        0.02583
C         -1.87281        0.40638       -0.00215
C         -0.56879        0.92071        0.01452
C          0.41910       -1.32569        0.02122
C         -2.01054       -0.99940       -0.00705
C         -0.89484       -1.82778        0.00441
H         -0.38230        1.99438        0.01906
H         -3.00808       -1.44772       -0.01986
H         -1.03646       -2.91385        0.00028
H         -3.90676        0.85651       -0.02538
H         -2.86444        2.23719       -0.00958
H          1.16461       -3.06653        0.02632
