12
4-CHLOROBUTYRONITRILE.out Energy: -670.69034173
Cl -0.54117077 1.96487974 -0.26409480
N -1.00913546 -2.72209957 0.35268233
C 1.28061427 -0.06521825 0.21106825
C 0.64695164 -1.04206481 -0.79682583
C 0.28868859 0.85631696 0.90557359
C -0.28028287 -1.99000014 -0.17223115
H 1.81507295 -0.63443750 0.99133874
H 2.03271080 0.54002266 -0.31931623
H 0.10030458 -0.47536504 -1.56822077
H 1.43372522 -1.61581765 -1.31268130
H -0.50222321 0.29169305 1.41931690
H 0.79641410 1.49845623 1.63707380
