16
4-CHLORO-M-PHENYLENEDIAMINE.gamout	Energy:    -801.9092914
Cl        -2.83039        0.41642        0.27418
N         -1.34970       -2.19280        0.15611
N          3.07322       -0.24691       -0.09398
C         -0.53839       -1.09083        0.11861
C          1.70912       -0.09193       -0.00835
C          0.86193       -1.21394        0.03133
C         -1.08051        0.21670        0.16607
C          1.13393        1.19770        0.04130
C         -0.24989        1.33352        0.12758
H          1.29732       -2.21760       -0.00637
H          1.77054        2.08551        0.01198
H         -0.70126        2.32739        0.16583
H         -0.96264       -3.12314        0.12189
H         -2.35048       -2.07434        0.21877
H          3.68197        0.55671       -0.12264
H          3.49385       -1.16289       -0.13064
