19
4-ETHYLCYCLOPENTENE.gamout	Energy:    -273.5611451
C          1.04420       -0.70950        0.44708
C          1.08573        0.62857        0.44078
C         -0.12796        1.22653       -0.23080
C         -1.10759        0.02310       -0.35564
C         -0.20399       -1.23530       -0.21991
C         -1.99261        0.02807       -1.60616
C         -2.96423        1.20765       -1.68491
H          1.82923       -1.35882        0.84504
H          1.90924        1.23222        0.83285
H         -0.56053        2.07010        0.33449
H          0.14350        1.63297       -1.22642
H         -1.76721        0.04834        0.53137
H          0.03930       -1.66639       -1.21200
H         -0.69339       -2.04351        0.35155
H         -2.56564       -0.91650       -1.63975
H         -1.34389        0.02191       -2.50248
H         -3.64315        1.22566       -0.81496
H         -3.58867        1.15420       -2.59155
H         -2.43350        2.17393       -1.70702
