17
4-ETHYLPYRIDINE.gamout	Energy:    -326.4673745
C          6.74150       -0.00697        0.24009
C          5.66465        0.14150       -0.84750
C          4.38054       -0.58232       -0.51078
C          3.34062        0.04532        0.19068
C          4.18491       -1.92889       -0.85239
C          2.18913       -0.68100        0.50962
N          2.00916       -1.96336        0.18275
C          2.99564       -2.56619       -0.48629
H          7.66121        0.53010       -0.04310
H          6.39406        0.39863        1.20390
H          7.00214       -1.06570        0.40036
H          6.05705       -0.24428       -1.80351
H          5.44936        1.21220       -1.00248
H          3.42153        1.09620        0.48425
H          4.95141       -2.47993       -1.40556
H          1.37018       -0.19539        1.05519
H          2.83472       -3.61838       -0.75290
