24
4-HEPTANOL.out Energy: -351.35771777
O -1.56960991 0.26071060 0.00000000
C -0.24739231 -0.26909583 0.00000000
C 0.50962102 0.11752262 -1.27716937
C 0.50962102 0.11752262 1.27716937
C -0.18420903 -0.32577992 -2.56818951
C -0.18420903 -0.32577992 2.56818951
C 0.53630065 0.12959560 -3.83727216
C 0.53630065 0.12959560 3.83727216
H -0.39407575 -1.36472148 0.00000000
H 0.64454892 1.21774388 -1.28608101
H 1.52860928 -0.30775549 -1.23287206
H 1.52860928 -0.30775549 1.23287206
H 0.64454892 1.21774388 1.28608101
H -0.27297929 -1.42746156 -2.56730997
H -1.21827127 0.05608952 -2.55875922
H -1.21827127 0.05608952 2.55875922
H -0.27297929 -1.42746156 2.56730997
H 0.60422325 1.22957581 -3.88850143
H 0.01175774 -0.21199473 -4.74394516
H 1.56593736 -0.26432421 -3.88139713
H 0.60422325 1.22957581 3.88850143
H 1.56593736 -0.26432421 3.88139713
H 0.01175774 -0.21199473 4.74394516
H -1.49866135 1.22612157 0.00000000
