22
4-HEPTANONE.gamout	Energy:    -349.9197015
C          2.03581        2.10644        1.96256
C          3.22423        1.18629        1.69496
C          4.43862        1.79167        0.99498
O          3.20170        0.01202        1.99824
C          0.83458        1.43106        2.63096
C          5.12336        2.94253        1.75199
C          1.05262        1.08629        4.10633
C          6.37511        3.45564        1.03746
H          1.75026        2.54559        0.98776
H          2.38581        2.96633        2.56382
H          5.14909        0.96571        0.83315
H          4.11829        2.14975       -0.00199
H          0.59056        0.51295        2.07092
H         -0.03842        2.09961        2.53489
H          4.41466        3.77727        1.88977
H          5.39351        2.59710        2.76593
H          0.15836        0.60596        4.53607
H          1.89670        0.39135        4.22770
H          1.26008        1.99121        4.70369
H          6.85039        4.27510        1.60019
H          6.13319        3.83734        0.03109
H          7.12344        2.65487        0.91563
