20
4-ISOPROPYLPYRIDINE.out Energy: -365.96509446
N -0.20607635 -2.67368754 0.00000000
C 0.42012598 1.63589394 0.00000000
C 0.19429106 0.13121297 0.00000000
C -0.14082603 2.29657393 1.27140665
C -0.14082603 2.29657393 -1.27140665
C 1.26861093 -0.76871944 0.00000000
C -1.09204019 -0.43157062 0.00000000
C 1.01912553 -2.14515790 0.00000000
C -1.23506251 -1.82125825 0.00000000
H 1.51281141 1.79259061 0.00000000
H -1.23533084 2.18233844 1.33527878
H 0.08152282 3.37600484 1.27746652
H 0.29553965 1.85340511 2.18021879
H 0.29553965 1.85340511 -2.18021879
H 0.08152282 3.37600484 -1.27746652
H -1.23533084 2.18233844 -1.33527878
H 2.29880723 -0.40111106 0.00000000
H -1.98417290 0.19998450 0.00000000
H 1.85780529 -2.85231640 0.00000000
H -2.23757496 -2.26655628 0.00000000
