27
4-ISOBUTYLMORPHOLINE.out Energy: -444.72421294
O -0.26009768 -3.03234142 -0.11361807
N 0.21956256 -0.22771949 -0.00802913
C 0.65241857 1.09363483 -0.44261605
C -0.30398778 2.23917181 -0.06197271
C -0.87010481 -0.78285916 -0.80186846
C 1.30873105 -1.19016386 0.10490892
C -1.32917495 -2.11509472 -0.21560590
C 0.79167682 -2.50984401 0.67146628
C -0.49498022 2.33054017 1.45544226
C 0.19941181 3.56222446 -0.65124236
H 0.83074172 1.11640472 -1.54342038
H 1.63043117 1.29579234 0.02860535
H -1.28929492 2.02992615 -0.51801642
H -0.55879450 -0.94162208 -1.86157307
H -1.72063281 -0.08319620 -0.81296143
H 2.08549180 -0.78407399 0.77423204
H 1.79031952 -1.38792557 -0.88183067
H -1.78016845 -1.93786179 0.78286784
H -2.09030012 -2.57788636 -0.86247337
H 1.59240031 -3.26531414 0.68249834
H 0.44859955 -2.34752926 1.71442133
H 0.45180164 2.60630108 1.95248514
H -1.24419386 3.09421401 1.72020838
H -0.81770540 1.36364194 1.86826243
H 1.18967548 3.82696686 -0.24114020
H -0.48767332 4.39053937 -0.41519616
H 0.29644709 3.50969491 -1.74816938
