16
4-METHYL-1-PENTYNE.gamout	Energy:    -234.2597363
C          3.62507        0.95061        1.14500
C          4.35264        2.10730        1.87559
C          2.17648        0.91038        1.34988
C          3.86439        3.47826        1.39598
C          5.86934        1.96022        1.70860
C          0.97752        0.88102        1.52754
H          3.83322        1.02130        0.06063
H          4.05445       -0.01315        1.47324
H          4.11334        2.01392        2.95050
H          4.35438        4.29086        1.95672
H          4.09233        3.62734        0.32584
H          2.77617        3.58544        1.52518
H          6.15857        2.02811        0.64534
H          6.40688        2.75557        2.24965
H          6.22992        0.99139        2.09193
H         -0.08460        0.85008        1.68154
