24
4-METHYL-CIS-3-HEPTENE.gamout	Energy:    -314.0220843
C          0.66903        0.01330        1.18528
C          1.76738       -0.16283        0.12544
C          2.73914       -1.26065        0.46801
C          4.06945       -1.17719        0.66045
C          4.86642        0.10638        0.53052
C          5.58177        0.26536       -0.82572
C          6.43168        1.53369       -0.91296
C          4.87528       -2.40545        1.01230
H         -0.06053        0.78344        0.88495
H          1.09774        0.31147        2.15619
H          0.11381       -0.92650        1.34556
H          2.28990        0.79474       -0.02824
H          1.28666       -0.40384       -0.84209
H          2.27948       -2.25233        0.58473
H          5.62677        0.13673        1.33355
H          4.21915        0.98366        0.69158
H          4.82283        0.26779       -1.62796
H          6.21907       -0.61694       -1.01287
H          5.81907        2.43916       -0.76283
H          6.92225        1.62433       -1.89580
H          7.22374        1.54308       -0.14465
H          4.25125       -3.31128        1.04793
H          5.36390       -2.28820        1.99696
H          5.68631       -2.58352        0.28357
