19
4-METHYLCYCLOHEXENE.gamout	Energy:    -273.5703642
C          0.50316        2.26584        1.63941
C          2.00895        2.11707        1.86966
C          2.77869        3.41631        1.58089
C          2.60245        0.95991        1.04607
C          4.26820        3.28790        1.92928
C          4.11132        0.94559        1.04887
C          4.85682        1.98390        1.45064
H          0.28598        2.53546        0.59089
H         -0.03272        1.32694        1.85786
H          0.07370        3.05292        2.28121
H          2.16715        1.87436        2.93850
H          2.67387        3.66068        0.50709
H          2.32862        4.25750        2.13552
H          2.21738       -0.00503        1.42380
H          2.24039        1.02102       -0.00073
H          4.83650        4.13281        1.50032
H          4.41437        3.37232        3.02462
H          4.60427        0.03052        0.70066
H          5.94974        1.89852        1.44374
