21
4-METHYL-CIS-2-HEXENE.gamout	Energy:    -274.7607451
C          3.65072        2.63698        1.42402
C          4.95886        2.28010        0.69337
C          3.12808        1.44425        2.19097
C          3.80343        3.89173        2.32462
C          1.92961        0.84885        2.08140
C          0.78939        1.21095        1.17237
C          4.80794        3.78838        3.47653
H          2.91039        2.90712        0.65265
H          5.73750        1.93662        1.39462
H          4.79348        1.46935       -0.03383
H          5.35963        3.15097        0.14754
H          3.82807        1.01711        2.92089
H          2.80957        4.14149        2.73544
H          4.08704        4.74119        1.67620
H          1.74222       -0.01564        2.73214
H          1.01624        2.05704        0.50767
H          0.50318        0.35072        0.54116
H         -0.11058        1.47431        1.75685
H          4.83755        4.73102        4.04677
H          4.54298        2.98728        4.18572
H          5.83150        3.59300        3.11757
