27
4-METHYLPHENANTHRENE.gamout	Energy:    -578.0580602
C          0.67908       -0.20628       -0.00001
C         -0.79283       -0.28321       -0.00000
C          1.27007        1.10699       -0.00001
C         -1.56166        0.93174       -0.00000
C          1.58550       -1.32758       -0.00000
C          0.44931        2.28633       -0.00001
C         -0.90601        2.20650       -0.00001
C          2.67409        1.28286       -0.00006
C         -1.54433       -1.49096        0.00000
C          2.96216       -1.09248       -0.00000
C         -2.97803        0.88942        0.00000
C          3.51943        0.19450       -0.00002
C          1.18493       -2.78821        0.00001
C         -2.93173       -1.50808        0.00000
C         -3.66532       -0.30953        0.00001
H          0.94989        3.25842       -0.00006
H         -1.52200        3.10988       -0.00000
H          3.07346        2.30079       -0.00006
H         -1.04113       -2.44783        0.00000
H          3.63301       -1.95583        0.00000
H         -3.52285        1.83787        0.00000
H          4.60475        0.32385       -0.00007
H          2.08647       -3.41727        0.00001
H          0.59613       -3.06453        0.88922
H          0.59612       -3.06454       -0.88919
H         -3.45256       -2.46940        0.00001
H         -4.75832       -0.32588        0.00001
