14
4-METHYLPYRIDINE.gamout	Energy:    -287.2115893
C          5.59784        0.44912       -0.32960
C          4.35604       -0.39632       -0.19937
C          3.07387        0.17352       -0.21290
C          4.42139       -1.79216       -0.08079
C          1.95220       -0.65444       -0.11587
C          3.23804       -2.53134        0.01048
N          2.01989       -1.98422       -0.00598
H          5.47127        1.42836        0.15779
H          6.47356       -0.04812        0.11483
H          5.83055        0.64019       -1.39203
H          2.94640        1.25690       -0.29613
H          5.38794       -2.30386       -0.05709
H          0.94608       -0.21628       -0.12445
H          3.28116       -3.62388        0.10473
