16
4-NITROBENZALDEHYDE.out Energy: -549.66840853
O 0.90651831 -3.16397809 0.00000000
O -1.25114145 -2.98252562 0.00000000
O -0.58842217 3.96318320 0.00000000
N -0.12548439 -2.51452990 0.00000000
C -0.00154170 -1.03627219 0.00000000
C 0.22810351 1.71927034 0.00000000
C 1.27385185 -0.47129592 0.00000000
C -1.16665569 -0.26356026 0.00000000
C 1.38075708 0.91933376 0.00000000
C -1.04455244 1.12245890 0.00000000
C 0.35098159 3.20446481 0.00000000
H 2.14745979 -1.12228307 0.00000000
H -2.13610582 -0.76104571 0.00000000
H 2.36790333 1.39017520 0.00000000
H -1.92458158 1.76903071 0.00000000
H 1.40487766 3.58508585 0.00000000
