22
4-PROPYLPHENOL.out Energy: -425.10871338
O 0.10117333 -3.75584669 0.40699036
C -0.20388550 1.84380398 -0.64740473
C 0.12890984 2.69430506 0.59260978
C -0.11568291 0.35275891 -0.40543457
C 1.08062958 -0.34977973 -0.60985252
C -1.21889409 -0.37424725 0.07486698
C 0.03031392 4.19867264 0.33875295
C 1.17903759 -1.71876617 -0.34672029
C -1.13856688 -1.73994206 0.34266268
C 0.06769857 -2.42371206 0.13415634
H 0.47944259 2.12581304 -1.46776174
H -1.22035663 2.10165780 -0.99360428
H -0.54926685 2.40731680 1.41554214
H 1.14528779 2.43774910 0.94010630
H 1.95950202 0.18064535 -0.98867884
H -2.16965584 0.14199417 0.23965284
H 0.72241167 4.51821867 -0.45863271
H -0.98707844 4.48742442 0.02512178
H 0.27587037 4.77762189 1.24340157
H 2.12416484 -2.24422816 -0.51978850
H -2.00160650 -2.29822333 0.71147101
H 0.98465383 -4.09897618 0.22030076
