23
4-TERT-BUTYLPYRIDINE.out Energy: -405.24710368
N 0.00073880 2.92287479 0.00000000
C -0.00520753 -1.46007417 0.00000000
C -0.02759386 0.07837693 0.00000000
C 0.73580787 -1.95706305 1.26274923
C 0.73580787 -1.95706305 -1.26274923
C -1.42261822 -2.05973007 0.00000000
C 1.17025205 0.81567001 0.00000000
C -1.20840704 0.83498039 0.00000000
C 1.13185716 2.21083362 0.00000000
C -1.13991453 2.23337925 0.00000000
H 0.76650988 -3.05875117 1.27979588
H 1.77414694 -1.59423569 1.29952351
H 0.22845315 -1.61653046 2.17930867
H 1.77414694 -1.59423569 -1.29952351
H 0.76650988 -3.05875117 -1.27979588
H 0.22845315 -1.61653046 -2.17930867
H -1.36177233 -3.15931546 0.00000000
H -1.99545077 -1.76075342 0.89179086
H -1.99545077 -1.76075342 -0.89179086
H 2.14086612 0.31449897 0.00000000
H -2.18917369 0.35910384 0.00000000
H 2.06885264 2.78134972 0.00000000
H -2.06696484 2.82020137 0.00000000
