24
5-ETHYL-M-XYLENE.gamout	Energy:    -388.9647294
C          1.01148        4.24455        1.93582
C          1.75724        4.01037        0.61240
C          3.23046        3.71046        0.79950
C          3.67729        2.38857        0.96468
C          4.17273        4.74463        0.85314
C          5.02816        2.09338        1.18339
C          5.53680        4.48648        1.06826
C          5.50276        0.67015        1.36045
C          5.94442        3.15731        1.23410
C          6.53706        5.61838        1.09408
H         -0.05553        4.45849        1.75843
H          1.07670        3.35943        2.58931
H          1.44013        5.09556        2.49009
H          1.28049        3.17423        0.07273
H          1.64442        4.90067       -0.02981
H          2.95095        1.57016        0.91998
H          3.83875        5.77964        0.72141
H          6.24736        0.39679        0.59347
H          5.98675        0.52785        2.34190
H          4.67149       -0.04755        1.29059
H          7.00472        2.94101        1.40347
H          7.50038        5.29883        1.51952
H          6.73475        5.99894        0.07629
H          6.16923        6.47023        1.68919
