24
5-METHYL-1-HEPTENE.gamout	Energy:    -314.0138219
C          4.02707        2.52040        2.15620
C          5.28332        2.11402        1.35867
C          6.55214        2.13912        2.23765
C          5.12226        0.74154        0.68973
C          2.78331        2.83019        1.30283
C          7.03334        3.53058        2.65668
C          1.58183        3.20543        2.12642
C          0.92973        4.37060        2.06574
H          3.78561        1.71702        2.87871
H          4.24961        3.41378        2.76316
H          5.42272        2.86664        0.55707
H          7.36640        1.63538        1.68653
H          6.37571        1.52042        3.13792
H          4.24260        0.70094        0.02837
H          5.00701       -0.05429        1.44649
H          6.00455        0.49188        0.07777
H          2.52843        1.94545        0.69056
H          3.01276        3.64441        0.59264
H          7.95256        3.46769        3.26145
H          7.25765        4.15798        1.77704
H          6.28447        4.06734        3.26134
H          1.23772        2.44553        2.84218
H          1.23446        5.16223        1.37187
H          0.06379        4.57795        2.70156
