24
5-METHYL-TRANS-2-HEPTENE.gamout	Energy:    -314.0179325
C          1.00798       -0.03928        0.27249
C          2.47287        0.02618       -0.04639
C          3.19720       -0.95779       -0.59575
C          4.67451       -0.90834       -0.87318
C          5.13674       -1.28762       -2.30149
C          4.69396       -0.28755       -3.39262
C          3.24063       -0.40113       -3.86183
C          6.66487       -1.44463       -2.31348
H          0.44439        0.74822       -0.25985
H          0.82255        0.12176        1.34988
H          0.57238       -1.01296       -0.00315
H          2.97957        0.97014        0.20043
H          2.69330       -1.90434       -0.84110
H          5.17277       -1.60950       -0.17536
H          5.06317        0.09617       -0.62362
H          4.69685       -2.27417       -2.54895
H          5.34973       -0.42729       -4.27070
H          4.89175        0.74022       -3.03393
H          3.02745       -1.41169       -4.25110
H          3.03380        0.31381       -4.67560
H          2.52487       -0.19927       -3.05176
H          7.16127       -0.48300       -2.09280
H          7.02721       -1.78504       -3.29708
H          7.00540       -2.17328       -1.55945
