22
5-METHYLINDAN.gamout	Energy:    -387.7629091
C         -1.70933        1.68777       -0.10685
C         -0.46451        0.83245       -0.05214
H         -1.68209        2.38231       -0.96392
H         -1.81382        2.30513        0.80183
H         -2.61891        1.07572       -0.20177
C         -0.54134       -0.56864       -0.11020
C          0.60974       -1.36705       -0.06630
C          1.86050       -0.75842        0.03073
C          0.80478        1.43202        0.05518
C          1.95345        0.64313        0.09171
C          3.40329        1.06634        0.21396
C          4.17715       -0.19767       -0.23277
H          3.63525        1.31801        1.26676
H          3.64831        1.95984       -0.38316
C          3.23881       -1.38218        0.10372
H          3.36497       -2.24116       -0.57547
H          3.43166       -1.75907        1.12668
H          5.16987       -0.28592        0.23486
H          4.32985       -0.15853       -1.32470
H          0.88315        2.52338        0.10511
H          0.51987       -2.45664       -0.11178
H         -1.52274       -1.04498       -0.19480
