22
5-METHYL-2-HEXANONE.gamout	Energy:    -349.9210515
C          1.93546        2.28501        1.79303
C          3.26583        2.90552        1.36248
C          1.87484        1.73781        3.23468
C          4.41437        1.91564        1.19518
C          2.11262        2.82127        4.29532
C          0.53465        1.03044        3.47434
C          5.79484        2.51663        0.98968
O          4.24107        0.71624        1.21335
H          1.13692        3.03913        1.66699
H          1.70103        1.46008        1.10024
H          3.15004        3.40139        0.37899
H          3.58810        3.71431        2.04185
H          2.67272        0.98085        3.33313
H          2.04815        2.39815        5.31146
H          1.35827        3.62548        4.22453
H          3.10692        3.28842        4.20596
H          0.49478        0.57596        4.47794
H          0.36428        0.22941        2.73649
H         -0.30868        1.73976        3.39724
H          6.50838        1.72799        0.71613
H          5.77680        3.29828        0.21230
H          6.12884        3.00267        1.92268
