21
5-VINYLNORBORNENE.gamout	Energy:    -349.6271839
C         -0.95356        1.52610       -0.59035
C         -1.36070       -0.68050       -0.37905
C          0.44660        0.88364       -0.96939
C         -1.43589        0.57116        0.52494
C          0.15388       -0.64496       -0.76945
C         -1.89996        1.12995       -1.71352
C         -2.13810       -0.18624       -1.59163
C          1.58526        1.39901       -0.13475
C          2.67805        2.00602       -0.60939
H         -0.89665        2.59740       -0.35304
H         -1.69358       -1.63496        0.05323
H          0.66607        1.10071       -2.02631
H         -2.45883        0.79664        0.86314
H         -0.76533        0.52723        1.39922
H          0.76684       -1.05743        0.04845
H          0.37082       -1.23296       -1.67357
H         -2.21501        1.78878       -2.52615
H         -2.69371       -0.82634       -2.28101
H          1.48946        1.26096        0.95119
H          3.46949        2.36541        0.05483
H          2.82355        2.16442       -1.68381
