24
6-METHYL-CIS-3-HEPTENE.gamout	Energy:    -314.0194601
C          1.48453        0.40490       -1.08128
C          2.33785       -0.04878        0.11228
C          3.01813       -1.37141       -0.12094
C          4.33042       -1.65234       -0.08717
C          5.48160       -0.72743        0.20044
C          6.55731       -0.69193       -0.91153
C          6.01185       -0.11235       -2.22153
C          7.79660        0.07895       -0.43917
H          0.95980        1.34887       -0.86095
H          0.72018       -0.34785       -1.33947
H          2.10588        0.56327       -1.97796
H          1.68215       -0.14145        0.99940
H          3.07467        0.73242        0.35857
H          2.33582       -2.20154       -0.35093
H          4.62147       -2.69250       -0.28884
H          5.97324       -1.06239        1.13417
H          5.12781        0.29995        0.39208
H          6.86444       -1.73817       -1.10567
H          5.71407        0.94319       -2.08967
H          5.12677       -0.66467       -2.57541
H          6.77231       -0.14498       -3.01926
H          7.54698        1.13143       -0.21712
H          8.58676        0.08220       -1.20812
H          8.22122       -0.36295        0.47733
