7
ACETALDEHYDE.gamout	Energy:    -153.6280885
C          0.60117        0.83110        0.70610
C          2.02172        1.10611        1.12680
O          2.59569        2.15452        0.97685
H          0.00327        0.53746        1.58672
H          0.16138        1.71836        0.22921
H          0.57811       -0.02598        0.01045
H          2.54147        0.23484        1.61296
