10
ACRYLAMIDE.gamout	Energy:    -246.9759404
C          3.17209        1.97855        0.13303
C          1.67567        2.08159        0.19708
N          1.01934        0.88676        0.08269
O          1.08851        3.14011        0.34319
C          3.93330        3.07319        0.21852
H          3.62365        0.98620        0.01796
H          0.00672        0.89190        0.11318
H          1.49988        0.01291       -0.08221
H          3.45630        4.05121        0.33617
H          5.02459        3.02384        0.17537
