27
ACYCLOVIR.gamout	Energy:    -809.8823530
O         -2.59235        0.14036       -0.28374
O          3.78270        1.00863        1.13925
O         -5.98402       -0.97509        0.05491
N         -0.42796        0.80298       -0.77556
N          1.03827        2.21722        0.17902
N          0.81540       -1.28012       -0.64849
N          2.92956       -0.96553        0.35044
N          2.24934       -3.07365       -0.39767
C          0.66922        0.04606       -0.43076
C         -1.66302        0.31550       -1.31925
C          1.56827        0.94444        0.15292
C         -0.13814        2.10151       -0.36792
C          2.84577        0.44917        0.60995
C         -3.84183       -0.35032       -0.71390
C          1.97021       -1.75059       -0.23830
C         -4.73891       -0.48733        0.50438
H         -1.44733       -0.64048       -1.83178
H         -2.04020        1.04323       -2.06603
H         -0.86011        2.90659       -0.51379
H         -3.74001       -1.33771       -1.20906
H         -4.31687        0.33599       -1.44514
H          3.81146       -1.37097        0.65242
H         -4.25028       -1.17094        1.22740
H         -4.82160        0.50311        0.99535
H          1.54190       -3.65337       -0.82794
H          3.11482       -3.49124       -0.09002
H         -6.57343       -1.05725        0.81406
