26
ADAMANTANE.gamout	Energy:    -390.1691587
C          1.10159       -0.91705        0.57611
C         -1.14372        0.14041        1.02914
C         -0.55429       -0.61674       -1.30407
C          0.59547        1.39361       -0.30174
C         -0.04188       -0.77593        1.60189
C          0.54738       -1.53031       -0.72650
C          1.69368        0.47540        0.27493
C         -1.69419       -0.47494       -0.27420
C         -0.54642        1.53067        0.72661
C          0.04205        0.77487       -1.60226
H          1.88920       -1.57174        0.98834
H         -1.95987        0.24070        1.76567
H         -0.94855       -1.05822       -2.23586
H          1.02148        2.38907       -0.51680
H         -0.46108       -1.76888        1.84264
H          0.34534       -0.35596        2.54695
H          0.14011       -2.53769       -0.52853
H          1.35950       -1.65521       -1.46434
H          2.52886        0.38685       -0.44230
H          2.11144        0.91928        1.19575
H         -2.49940        0.16012       -0.68448
H         -2.14389       -1.46234       -0.06762
H         -0.16697        1.99056        1.65611
H         -1.33061        2.20350        0.33633
H          0.84653        0.68832       -2.35380
H         -0.73054        1.43288       -2.03835
