5
ALCL4-1.gamout	Energy:   -2082.7189065
Al        -1.99083       -1.83283       -1.13142
Cl        -3.98224       -0.99007       -0.90624
Cl        -0.98999       -0.88105       -2.81018
Cl        -0.84857       -1.48586        0.68520
Cl        -2.14498       -3.97049       -1.49446
