24
ALFA-D-FRUCTOFURANOSE.gamout	Energy:    -686.2923751
C         -0.73281        1.15722       -0.31663
O          0.51586        1.73287       -0.72069
C          1.61318        1.02405       -0.22554
C         -0.40040       -0.13720        0.43747
C          1.05528        0.08381        0.88766
C          2.63066        2.03769        0.29743
C         -1.48260        2.18446        0.52686
H         -1.32917        0.90669       -1.20880
O         -2.78085        1.68263        0.77031
H         -1.49867        3.13945       -0.03502
H         -0.91788        2.35182        1.46430
H         -3.21142        2.24804        1.42240
O          3.66236        1.28406        0.93360
H          2.13820        2.73139        0.99946
H          3.01153        2.61193       -0.56541
H          4.41742        1.86014        1.10566
O          2.17693        0.26799       -1.27156
H          3.04496       -0.02607       -0.95621
O          1.05804        0.67793        2.16999
H          1.98728        0.79454        2.41911
O         -0.53425       -1.21608       -0.46336
H         -0.34120       -2.03500        0.01092
H         -1.05305       -0.25569        1.32080
H          1.61409       -0.86994        0.88159
