24
ALPHA-D-FRUCTOFURANOSE.out Energy: -686.64953214
C -0.29895482 -1.29914911 0.65656168
O -0.03699819 -0.04248800 1.29091786
C -0.17048059 1.03653111 0.41321926
C -0.81002689 -0.98447888 -0.75456929
C -0.25600488 0.42704315 -1.02110717
C 1.03864179 1.95243397 0.60454922
C 0.98179810 -2.12783373 0.67426516
H -1.08687532 -1.83229550 1.21224328
O 0.66362394 -3.42505796 0.21464581
H 1.36853380 -2.13235726 1.71232546
H 1.73516002 -1.63186663 0.03254428
H 1.48236556 -3.92314494 0.10816964
O 0.94552450 2.96076500 -0.40048342
H 1.96751637 1.36583427 0.50964893
H 0.98436495 2.37579578 1.62253778
H 1.58063880 3.66169768 -0.20902383
O -1.35418847 1.73029967 0.72925274
H -1.29915466 2.58473024 0.27532741
O 1.00075073 0.32177069 -1.65767085
H 1.31712778 1.22771729 -1.79358707
O -2.22056041 -1.01563944 -0.72502948
H -2.54878866 -0.81683785 -1.61104092
H -0.39464425 -1.69676834 -1.48938160
H -0.97027673 1.01405410 -1.62673181
