24
ALPHA-D-GLUCOSE.out Energy: -686.65047885
O 2.20244214 -1.90722857 0.19399666
O -0.38745017 -2.34676340 -0.31300036
O -2.40828013 -0.89371824 0.87862763
O -1.52911395 0.02416240 -1.51535326
O 1.37158124 0.03435854 -0.59359438
O 0.10845043 3.35910697 0.12450698
C 1.33601481 -0.85753032 0.50044281
C -0.05328746 -1.46601325 0.72727481
C -1.11583865 -0.35823001 0.80813640
C -1.00206796 0.64831581 -0.35556382
C 0.44876804 1.11595386 -0.57535330
C 0.89173354 2.21621537 0.39892323
H 2.98126879 -1.52273894 -0.23346927
H 0.44420104 -2.75060851 -0.60515850
H -2.55376189 -1.30607234 0.01172486
H -1.86431874 0.71198350 -2.10292618
H 0.31298403 4.04302113 0.77337719
H 1.66506872 -0.33258890 1.42543876
H -0.03199728 -1.99656610 1.70248089
H -0.94766737 0.19402965 1.74906245
H -1.60079610 1.53660267 -0.08965021
H 0.50275846 1.55533905 -1.58429336
H 1.97163448 2.39640117 0.22979886
H 0.77375891 1.88839396 1.45089104
