24
ALPHA-D-FRUCTOPYRANOSE.out Energy: -686.65992219
C -0.78426995 -1.60029936 0.42430745
O -0.92314755 -2.37780253 -0.76362519
C -1.77208904 -0.43783264 0.46382165
C 0.65653872 -1.07360490 0.51638507
H -0.97975839 -2.28453042 1.26645779
O -1.48089950 0.51332089 -0.56107633
H -1.76617223 0.03131131 1.45894193
H -2.78664646 -0.80442552 0.24672939
C 0.86394482 0.01608932 -0.53879830
O 1.60373341 -2.10551407 0.31004426
H 0.83831487 -0.64673100 1.51284356
H 0.73090737 -0.46433340 -1.53064980
O 2.14415328 0.60385697 -0.45948042
C -0.20356609 1.12566168 -0.51290261
O -0.12886603 1.86911903 -1.70230963
C -0.06825517 2.14150550 0.63623045
H -1.14794852 -1.76696338 -1.48188466
H 1.22161659 -2.66590802 -0.38698931
H 2.76979539 -0.12815675 -0.34502099
O -0.11128737 1.52654463 1.91185889
H -0.89167325 2.86626248 0.49769328
H 0.89016086 2.66696922 0.48096576
H 0.13685799 2.17956322 2.57730797
H 0.81218526 1.96553814 -1.90981596
