19
ALPHA-METHYLSTYRENE.gamout	Energy:    -348.4803565
C          3.92658        1.80262        1.82086
C          2.65108        2.09598        2.31371
C          4.11770        0.72382        0.95698
C          1.52789        1.32151        1.95929
C          1.74609        0.23478        1.08427
C          0.17366        1.65044        2.49539
C          3.01574       -0.05953        0.59166
C         -0.92830        0.94083        2.18720
C          0.05488        2.83763        3.42451
H          4.77478        2.42576        2.11744
H          2.53734        2.94645        2.98708
H          5.11363        0.49238        0.57018
H          0.90832       -0.39516        0.78087
H          3.14832       -0.90859       -0.08453
H         -1.90219        1.21511        2.60117
H         -0.91465        0.07317        1.52475
H          0.67728        2.71266        4.32705
H          0.38394        3.77083        2.93630
H         -0.98580        2.97680        3.75006
