4
AMMONIA.gamout	Energy:     -56.4729290
N         -0.00287       -0.02532        0.02853
H          1.01859       -0.00067       -0.01161
H         -0.29580        0.95370       -0.01159
H         -0.29576       -0.42870       -0.86434
