16
ANTHRANILATE-1.gamout	Energy:    -475.0157430
O          2.32124        1.41869        0.10159
O          2.44127       -0.82916        0.05827
N          0.27244       -2.20035       -0.32922
C          0.27541        0.20503       -0.03537
C         -0.43116       -1.03072       -0.15009
C         -0.45935        1.38735        0.07439
C         -1.84563       -1.00939       -0.10760
C         -1.85915        1.40479        0.09544
C         -2.54818        0.18941        0.01364
C          1.82424        0.28139        0.04182
H          0.13374        2.30218        0.15824
H         -2.38781       -1.95931       -0.18131
H         -2.40523        2.34903        0.18591
H         -3.64372        0.17246        0.04290
H          1.28796       -2.02055       -0.14038
H         -0.17108       -3.05166       -0.00334
