26
API.out Energy: -776.73147094
C 0.67692496 4.11524983 0.26380327
C -0.30185369 3.10326862 -0.23766989
C 0.14199347 1.66328561 -0.13631734
C 1.54701954 1.38413167 -0.09831292
C -1.78021859 3.05904331 0.02512370
C -2.16225922 1.76036063 0.09044927
C -0.99834192 0.88443278 -0.01356619
C 2.42427804 2.40782219 0.13992141
C 1.98129426 3.76915339 0.37733241
C -1.15986054 -0.57049694 0.03616173
H 0.34229094 5.14253087 0.43241955
H 2.72483886 4.51741010 0.66353556
H 1.89771671 0.35551579 -0.17253668
H 3.49383600 2.19290084 0.21020218
H -0.29363821 3.29149607 -1.34605182
H -2.42935375 3.93495948 0.03717803
H -3.17925089 1.38211937 0.19329166
O -2.20406891 -1.15296920 0.17968148
O 0.04403136 -1.24302562 -0.10271329
C 0.07637259 -2.59683713 -0.07511368
C -0.82357188 -3.63872168 0.07006315
N -0.11214230 -4.80102021 0.00353019
H -1.89698234 -3.60713901 0.21251976
N 1.14563454 -4.55024083 -0.17043451
N 1.27868153 -3.20896336 -0.22085469
H 2.18951454 -2.78333480 -0.35431812
