16
ASPARTIC_ACID.gamout	Energy:    -511.6686362
C          1.77396        1.59594       -0.20167
C          3.03841        0.86807        0.28686
C          4.23512        1.82049        0.21683
N          3.35454       -0.38138       -0.38547
C          0.50806        0.76980       -0.02473
O          4.20631        2.92580       -0.27216
O          5.33557        1.29984        0.77576
O          0.47603       -0.35015        0.41387
O         -0.63618        1.38338       -0.39880
H          1.88569        1.87108       -1.26600
H          1.64993        2.55321        0.33511
H          2.59946       -1.04439       -0.21126
H          3.41714       -0.24498       -1.39553
H          6.04215        1.96068        0.67125
H         -0.45431        2.28225       -0.71028
H          2.90563        0.62742        1.35645
