44
ATROPINE.gamout	Energy:    -940.8227155
O         -1.23595        2.41126       -1.13159
O         -1.59431        1.37557        0.83981
O          0.08833        4.58408        0.65529
N         -4.48468        3.61456       -3.24379
C         -4.02882        2.27151       -3.62385
C         -4.80031        3.43533       -1.82006
C         -5.04910        1.29312       -2.97034
C         -5.57518        2.08480       -1.74343
C         -2.61294        2.09211       -3.05943
C         -3.47212        3.38428       -1.05440
C         -2.60699        2.21834       -1.53889
C         -5.58139        4.12166       -4.04215
C         -0.86638        1.97079        0.08533
C          0.59896        2.28395        0.37691
C          1.51503        1.23980       -0.24023
C          0.96366        3.71215       -0.02985
C          2.27038        0.39541        0.58397
C          1.62421        1.09030       -1.63124
C          3.11671       -0.57099        0.03712
C          2.47050        0.12647       -2.17981
C          3.22041       -0.70792       -1.34804
H         -3.99763        2.17519       -4.71884
H         -5.39982        4.28200       -1.45491
H         -4.58209        0.33555       -2.69503
H         -5.86359        1.05766       -3.67088
H         -6.65858        2.25840       -1.81617
H         -5.39971        1.56611       -0.78931
H         -2.19214        1.11795       -3.35463
H         -1.97419        2.88129       -3.48323
H         -2.92884        4.32338       -1.23597
H         -3.64383        3.29340        0.02858
H         -2.95222        1.28611       -1.06769
H         -5.25972        4.22389       -5.09017
H         -5.86417        5.12368       -3.68475
H         -6.49918        3.49276       -4.03414
H          0.68095        2.21587        1.47058
H          0.87794        3.81926       -1.12638
H          2.02258        3.89337        0.24223
H          2.18922        0.49322        1.66940
H          1.02575        1.72275       -2.28889
H          0.19127        5.47361        0.29639
H          3.69601       -1.22097        0.69727
H          2.54120        0.02445       -3.26531
H          3.88050       -1.46481       -1.77725
