5
BCL4-1.gamout	Energy:   -1865.0702387
B         -7.37597        2.20552        0.82918
Cl        -6.86898        0.90446        2.08887
Cl        -9.24559        2.17798        0.61824
Cl        -6.55028        1.83305       -0.81967
Cl        -6.83658        3.90459        1.43348
