15
BENZOTHIOPHENE.gamout	Energy:    -706.0669753
C         -3.97841       -0.52520        0.11315
C         -4.61971       -0.36127       -1.14473
C         -2.87686        0.39212        0.27492
C         -4.46634       -1.50749        1.00020
S         -3.85468        0.90655       -2.08423
C         -5.71789       -1.14971       -1.51728
C         -2.70128        1.20277       -0.80605
C         -5.55499       -2.28935        0.63094
C         -6.17803       -2.11156       -0.62142
H         -2.25069        0.43277        1.16805
H         -3.98566       -1.64843        1.97219
H         -6.20170       -1.01337       -2.48753
H         -1.94727        1.97830       -0.94042
H         -5.93378       -3.05071        1.31766
H         -7.03295       -2.73551       -0.89463
