16
BENZENESULFONIC_ACID.gamout	Energy:    -855.2796490
S          1.72336       -0.18110       -0.04289
O          2.11040        0.36062        1.46112
O          2.13620       -1.58147       -0.11567
O          2.22467        0.83748       -0.94834
C         -0.06441       -0.10347       -0.02373
C         -0.68716        1.13909       -0.17137
C         -0.79877       -1.28067        0.12838
C         -2.08083        1.19866       -0.14715
C         -2.19456       -1.20755        0.14228
C         -2.83244        0.02881        0.01183
H         -0.08441        2.03737       -0.31365
H         -0.27564       -2.23401        0.21447
H         -2.58462        2.16163       -0.26026
H         -2.78458       -2.12007        0.25576
H         -3.92360        0.08163        0.02432
H          2.17099       -0.41160        2.04903
