14
BENZOYL_CHLORIDE.gamout	Energy:    -804.5393147
Cl         6.53271        4.50599       -1.51757
C          7.27304        2.93503       -0.98048
O          8.45705        2.85145       -0.89434
C          6.29949        1.84817       -0.68401
C          6.84018        0.61657       -0.26575
C          4.90716        1.99231       -0.79968
C          5.99751       -0.45267        0.03149
C          4.61005       -0.30344       -0.08533
C          4.06829        0.91758       -0.50025
H          7.92413        0.51939       -0.18057
H          4.49117        2.94640       -1.12409
H          6.42166       -1.40631        0.35548
H          3.94939       -1.14266        0.14810
H          2.98566        1.03447       -0.59150
