23
BENZOCAINE.gamout	Energy:    -554.0814728
O         -2.24179       -0.34790       -0.04396
O         -1.85240        1.86971       -0.03754
N          4.11785       -0.52646        0.00048
C          0.00815        0.36543       -0.02715
C          0.96918        1.39292       -0.01859
C          0.45603       -0.96802       -0.02631
C          2.78028       -0.23490       -0.00854
C          2.32723        1.10567       -0.00948
C          1.81264       -1.26681       -0.01723
C         -1.42800        0.73382       -0.03653
C         -3.65197       -0.09470       -0.05277
C         -4.36731       -1.43136       -0.06003
H          0.62091        2.42822       -0.01923
H         -0.27664       -1.77649       -0.03286
H          3.05904        1.91892       -0.00287
H          2.14127       -2.31035       -0.01665
H         -3.91814        0.50857        0.83144
H         -3.90663        0.51197       -0.93809
H         -5.45797       -1.27668       -0.06682
H         -4.09593       -2.01841       -0.95161
H         -4.10752       -2.02192        0.83269
H          4.43977       -1.48300        0.00124
H          4.81089        0.20736        0.00673
