18
BENZYL_FORMATE.out Energy: -459.78232953
O 0.33710872 -1.79575190 -0.54916275
O -0.28361943 -3.75748970 0.38607415
C -0.18468403 0.41371704 0.23320895
C -0.38476716 -1.05989013 0.46383744
C 1.10211300 0.97346674 0.29038481
C -1.27575266 1.25190419 -0.03125986
C 1.29116632 2.34081801 0.08600700
C -1.09005839 2.62427197 -0.22871508
C 0.19392906 3.17084271 -0.17242570
C 0.30002652 -3.12897670 -0.45474232
H -0.00890842 -1.37443983 1.45153102
H -1.44953992 -1.33567617 0.41968506
H 1.96159166 0.32779907 0.48981320
H -2.28230149 0.82714998 -0.08387328
H 2.29821468 2.76348969 0.13136270
H -1.95140790 3.26561878 -0.43218315
H 0.34182099 4.24229896 -0.33009387
H 0.89724643 -3.56878808 -1.28231657
