39
BETA-CARIOPHYLLENE.out Energy: -585.56915316
C -0.08313228 2.46725675 0.01616257
C 0.43710726 0.98736917 0.13140977
C -0.97807766 0.49093650 -0.35245700
C -1.52935693 1.89635273 0.01306486
C 1.72791032 0.59645649 -0.60271141
C 0.28304774 3.38327099 1.18269437
C 0.25814795 3.14457504 -1.31704641
C -1.66704765 -0.74639754 0.20831903
C 2.41386976 -0.69304006 -0.10279229
C -1.88853286 -1.92683288 -0.73065790
C 1.44774016 -1.85644459 0.07464409
C -0.69682203 -2.92905420 -0.77926630
C -2.08994975 -0.80884053 1.48030245
C 0.58481893 -2.16186354 -0.90932341
C 1.46462425 -2.51052500 1.43230201
H 0.53814190 0.74925970 1.20468528
H -0.94482012 0.39798238 -1.44963138
H -2.24869663 2.34572300 -0.69085568
H -1.97467234 1.91166081 1.01898074
H 2.45265206 1.42459781 -0.50354311
H 1.52265647 0.51772828 -1.68359611
H 1.36707464 3.59063684 1.20199733
H -0.23731174 4.35369941 1.10838826
H 0.01149624 2.93078935 2.15033779
H 0.00467902 2.51422142 -2.18400032
H -0.30768138 4.08586063 -1.41810387
H 1.32928986 3.39428092 -1.38742331
H 2.89503091 -0.48454080 0.86789575
H 3.23877549 -0.95793806 -0.78939368
H -2.79878194 -2.47424984 -0.43567053
H -2.07051895 -1.54313137 -1.75001699
H -0.85189767 -3.62169239 -1.62550434
H -0.70592742 -3.53644632 0.13803723
H -1.94423036 0.01340975 2.18685342
H -2.60054809 -1.69602663 1.86748463
H 0.69354318 -1.62175245 -1.85880646
H 1.15955992 -1.79773572 2.21904655
H 2.49060413 -2.83321927 1.68387031
H 0.80962162 -3.38897152 1.50219142
