71
BETAMETHASONE_VALERATE.gamout	Energy:   -1600.2004772
F          1.79914       -1.23932        0.09763
O         -2.37619       -0.20424        0.02994
O          2.02368        1.76481        1.99039
O         -3.22332        3.24279        0.33181
O         -4.98094        1.67657        2.02138
O         -4.58114        0.08799       -0.29083
O          6.31251       -3.24366        0.33721
C         -0.56503        1.39066        0.16951
C          0.11558        0.79271       -1.08696
C          1.65854        0.82319       -1.05888
C          2.18050        0.11562        0.22065
C         -2.09007        1.20531       -0.20973
C         -0.64251        1.45370       -2.23935
C         -0.07538        0.60195        1.38991
C         -2.12626        1.42834       -1.78401
C          1.45957        0.54619        1.52961
C          3.76360        0.08952        0.29366
C          2.25288        0.14892       -2.30967
C         -0.26890        2.89165        0.33745
C          3.78168       -0.00365       -2.26359
C          4.25028       -0.60493       -0.96719
C         -3.00880        2.09905        0.65512
C         -2.96467        2.56190       -2.37809
C          4.39973        1.51013        0.32772
C          4.24108       -0.59762        1.54921
C          5.06869       -1.67300       -0.92391
C         -3.58434        1.58511        1.99710
C          5.06913       -1.65108        1.57119
C         -3.63489       -0.64735       -0.09415
C          5.55441       -2.28404        0.32798
C         -3.71588       -2.14789        0.05760
C         -5.13593       -2.71271       -0.02269
C         -5.18858       -4.23305        0.14983
C         -6.60201       -4.81219        0.06067
H         -0.15817       -0.27531       -1.09312
H          2.00245        1.86920       -1.02028
H         -0.30059        2.48994       -2.40465
H         -0.52452        0.91975       -3.19298
H         -0.43859       -0.43094        1.32123
H         -0.48027        1.01926        2.32755
H         -2.56104        0.49307       -2.16566
H          1.67871       -0.25909        2.25152
H          1.97727        0.71998       -3.20824
H          1.80406       -0.85203       -2.41417
H         -0.67593        3.26226        1.28886
H          0.80982        3.07613        0.35628
H         -0.72161        3.49962       -0.45251
H          4.25386        0.98663       -2.39728
H          4.11720       -0.62331       -3.10661
H         -4.02114        2.46550       -2.09536
H         -2.62545        3.55903       -2.06944
H         -2.89905        2.50002       -3.47695
H          4.04904        2.13733       -0.50114
H          4.15678        2.02099        1.26396
H          5.49070        1.40787        0.23950
H          3.93769       -0.13330        2.49063
H          1.53338        2.05080        2.77259
H          5.42575       -2.14453       -1.84248
H         -3.19782        2.27230        2.76785
H         -3.21277        0.57231        2.24719
H          5.43324       -2.08097        2.50671
H         -3.05764       -2.58983       -0.71185
H         -3.23647       -2.40346        1.01988
H         -5.29909        1.21771        1.22766
H         -5.75628       -2.22082        0.74608
H         -5.58312       -2.42661       -0.99039
H         -4.74173       -4.50646        1.12398
H         -4.54839       -4.71034       -0.61529
H         -7.26110       -4.39496        0.84079
H         -7.06760       -4.59573       -0.91582
H         -6.58979       -5.90558        0.18705
