51
BETAXOLOL.gamout	Energy:    -982.4133936
O         -4.51948        0.59369        0.08710
O          2.04678        0.70244        0.26772
O          4.60561        0.93534        1.42492
N          3.83535       -2.35724       -0.10140
C         -5.51964       -1.38483        0.94316
C         -5.70356       -2.87245        0.77603
C         -4.43614       -2.32988        1.38641
C         -5.30293       -0.52117       -0.26705
C         -4.26920        1.48431       -0.97103
C         -3.28801        2.55749       -0.50330
C         -1.87946        2.06384       -0.26426
C          3.95406       -0.31040        1.28604
C          4.36730       -1.01158       -0.01555
C          4.02131       -3.05429       -1.37634
C          2.45762       -0.06099        1.38177
C         -0.84102        2.36930       -1.15802
C         -1.56661        1.26808        0.84352
C          0.75519        1.10510        0.15871
C          3.79015       -4.54895       -1.16062
C          3.07258       -2.50717       -2.44462
C          0.45412        1.90191       -0.95563
C         -0.27155        0.78874        1.06223
H         -6.10258       -0.90188        1.73557
H         -6.42254       -3.38016        1.42485
H         -5.65137       -3.28382       -0.23725
H         -3.51858       -2.36282        0.79099
H         -4.27753       -2.45907        2.46006
H         -6.27895       -0.19129       -0.68333
H         -4.79982       -1.10958       -1.06470
H         -3.85553        0.94157       -1.84712
H         -5.21392        1.96511       -1.30369
H         -3.27690        3.35893       -1.25899
H         -3.70279        2.99817        0.41964
H          4.20496       -0.98013        2.14075
H          5.48253       -0.97628       -0.08150
H          3.98843       -0.40635       -0.85190
H          5.06530       -2.92418       -1.74817
H          4.22640       -2.92425        0.65018
H          1.93317       -1.03266        1.40525
H          2.25051        0.48420        2.31992
H         -1.05053        2.99445       -2.03058
H         -2.35823        1.00446        1.54740
H          2.76825       -4.73225       -0.78937
H          3.92513       -5.10911       -2.09825
H          4.49941       -4.96031       -0.42300
H          3.25013       -1.44020       -2.64607
H          2.02713       -2.61620       -2.11396
H          3.20417       -3.04768       -3.39525
H          1.26118        2.14884       -1.64774
H         -0.07816        0.17232        1.93989
H          5.54960        0.80333        1.26966
