46
BISACODYL.gamout	Energy:   -1203.8773124
O         -5.78573       -2.79372        5.10921
O          2.97346       -0.20334        1.86344
O         -6.22991       -4.07263        3.28242
O          3.72481       -1.29422        3.71212
N         -3.37092        1.61074        0.94662
C         -2.38454        1.38949        3.17799
C         -3.27126        0.23842        3.66346
C         -0.96590        0.93443        2.79129
C         -3.12845        2.20155        2.12289
C         -3.87219        0.28515        4.92967
C         -0.18953        0.28525        3.76296
C         -3.53189       -0.87335        2.85164
C         -0.37272        1.17564        1.54389
C         -3.59045        3.49641        2.40407
C         -4.70666       -0.74280        5.36715
C          1.12493       -0.12410        3.52581
C         -4.36708       -1.91071        3.27060
C          0.93827        0.77636        1.28705
C         -4.95746       -1.83786        4.53870
C          1.68871        0.12775        2.26862
C         -4.33397        4.17957        1.44084
C         -4.07749        2.26734        0.02873
C         -4.58839        3.55280        0.22258
C         -6.36762       -3.82742        4.45228
C          3.88978       -0.88858        2.59141
C         -7.22330       -4.63067        5.40033
C          5.14928       -1.05723        1.78063
H         -2.25884        2.06330        4.04010
H         -3.68981        1.13932        5.58783
H         -0.62606        0.08532        4.74544
H         -3.08502       -0.92105        1.85722
H         -0.93948        1.66290        0.75239
H         -3.37406        3.96024        3.36858
H         -5.17267       -0.71520        6.35323
H          1.70017       -0.62584        4.29750
H         -4.56472       -2.75837        2.62152
H          1.39936        0.95883        0.31547
H         -4.70856        5.18582        1.64209
H         -4.25123        1.74369       -0.91721
H         -5.16674        4.04227       -0.56286
H         -8.26482       -4.60077        5.04474
H         -7.17187       -4.25191        6.42812
H         -6.89849       -5.68174        5.36924
H          4.92921       -1.59669        0.84627
H          5.55106       -0.07082        1.50097
H          5.88861       -1.61111        2.37097
