25
BMIM+1.gamout	Energy:    -422.5912858
C         -0.97840        0.58248       -0.79785
C         -1.92326       -0.13524        0.16870
C         -3.38711       -0.04580       -0.28089
C         -4.34181       -0.78315        0.65929
N          0.43904        0.50978       -0.38040
C          1.17368       -0.60754       -0.31817
N          2.40021       -0.29748        0.12491
C          2.45061        1.06240        0.35259
C          1.21914        1.56783        0.03785
C          3.49235       -1.25279        0.34205
H         -1.05026        0.16323       -1.81396
H         -1.22129        1.65203       -0.87160
H         -1.62763       -1.19760        0.24839
H         -1.81104        0.29969        1.17749
H         -3.67941        1.01740       -0.35055
H         -3.48087       -0.45609       -1.30256
H         -5.38057       -0.69232        0.30973
H         -4.10328       -1.85854        0.71422
H         -4.29657       -0.37627        1.68273
H          0.83170       -1.60631       -0.58465
H          3.34776        1.55807        0.71479
H          0.84575        2.58851        0.07227
H          3.75315       -1.75080       -0.60218
H          4.36829       -0.70493        0.70931
H          3.19411       -2.00016        1.09046
