30
BMPYR+1.gamout	Energy:    -408.9395571
C         -3.80657        1.19741       -0.58321
C         -4.21460       -0.27666       -0.61900
C         -3.36380       -0.88893        0.48713
H         -3.97307       -0.72489       -1.59671
H         -5.28593       -0.44327       -0.43676
C         -2.29367        1.11226       -0.42736
H         -4.26934        1.71557        0.27290
H         -4.08111        1.75266       -1.49093
N         -2.04297       -0.08978        0.49562
H         -1.81505        2.00046        0.00150
H         -1.81513        0.88885       -1.38983
H         -3.13333       -1.95324        0.35821
H         -3.82848       -0.75269        1.47219
C         -1.75060        0.37437        1.88794
H         -1.65339       -0.50012        2.54384
H         -2.57795        1.00542        2.23252
H         -0.82059        0.95153        1.89746
C         -0.91756       -0.96909       -0.02667
C          0.45635       -0.31595       -0.14804
H         -1.26213       -1.32920       -1.00716
H         -0.87751       -1.83441        0.65065
C          1.45967       -1.28117       -0.80105
H          0.83637       -0.02453        0.84558
H          0.39871        0.60635       -0.75181
C          2.86119       -0.68416       -0.92722
H          1.08757       -1.56956       -1.80065
H          1.50501       -2.21351       -0.21008
H          2.85978        0.23046       -1.54340
H          3.54583       -1.40171       -1.40234
H          3.28360       -0.42678        0.05830
