5
BROMOCHLOROMETHANE.gamout	Energy:   -3072.9748468
C          0.85719        0.01427       -0.00010
Cl         2.44264        0.82005        0.00010
Br        -0.65745        1.24859        0.00010
H          0.77323       -0.59762       -0.90435
H          0.77319       -0.59799        0.90388
