5
BROMODIFLUOROMETHANE.gamout	Energy:   -2811.8329056
C          1.12882        2.15409        0.45430
Br         2.68230        2.87067        1.41485
F          0.61630        3.09577       -0.34036
F          1.50220        1.11392       -0.29288
H          0.38958        1.84348        1.20817
