15
BTI-1.gamout	Energy:   -1825.6665855
F         -2.13662        1.37828        3.71405
F         -1.27095        3.09950        2.72729
F         -3.41141        2.77702        2.67040
C         -2.21886        2.16190        2.64199
S         -2.08396        1.18396        1.03110
O         -2.84539       -0.04283        1.30140
O         -2.58242        2.13523        0.03363
O          1.83881        0.26225        1.22449
O          0.07497       -0.40353        2.92049
S          0.44581       -0.06852        1.53714
N         -0.49978        1.00066        0.78741
F          1.19026       -2.52898        0.92934
F         -0.95822       -2.27285        0.92976
F          0.22149       -1.51132       -0.71740
C          0.19316       -1.68969        0.60742
