24
BUTYL_LACTATE.out Energy: -500.49628087
O -0.20839532 0.21167439 -0.21616971
O 0.26620650 3.75557496 -0.37316667
O 1.58947838 1.51754156 0.14004342
C -0.31918031 -2.18306431 -0.13633270
C 0.41559561 -3.49974607 0.13534179
C 0.57112236 -0.96942013 0.05693156
C -0.46662197 -4.73312937 -0.06276729
C -0.48319469 2.57545270 -0.46410617
C 0.41852048 1.38549487 -0.14144417
C -1.70892093 2.63211080 0.45099802
H -0.71273524 -2.17595450 -1.16782960
H -1.19437789 -2.09447474 0.53082095
H 0.81139743 -3.49111608 1.16709417
H 1.29908186 -3.56863098 -0.52501976
H 0.96278721 -0.90612575 1.08551349
H 1.44125130 -0.98508498 -0.61964215
H -0.83176233 2.41741756 -1.50697019
H -1.33943964 -4.71373818 0.61080639
H -0.84819964 -4.79051776 -1.09570358
H 0.08958254 -5.66203781 0.13897137
H -2.31305913 3.51366968 0.19083428
H -2.32786263 1.72948201 0.34453367
H -1.39318232 2.73372778 1.50115706
H 1.17629807 3.48071439 -0.16664042
