28
BUTYLPARABEN.gamout	Energy:    -652.4396620
O          1.25782        0.09923        0.05607
O          0.46951        2.20340        0.16680
O         -4.96013       -1.13258       -0.08314
C          3.55882       -0.56854        0.03740
C          5.02739       -0.13208        0.06964
C          2.59899        0.60698        0.09388
C          6.00944       -1.30318        0.01513
C         -1.08784        0.39150        0.04930
C          0.26433        1.01163        0.09765
C         -2.21131        1.23775        0.08507
C         -1.28476       -0.99622       -0.03166
C         -3.49882        0.71740        0.04045
C         -2.57287       -1.52682       -0.07723
C         -3.68781       -0.67312       -0.04155
H          3.35872       -1.14882       -0.88106
H          3.34754       -1.24484        0.88491
H          5.21135        0.45979        0.98512
H          5.22155        0.55401       -0.77513
H          2.73244        1.20386        1.01240
H          2.74669        1.29763       -0.75389
H          5.86522       -1.98616        0.86927
H          5.87864       -1.89627       -0.90584
H          7.05401       -0.95391        0.04060
H         -2.04565        2.31539        0.14790
H         -0.41962       -1.66011       -0.05969
H         -4.37797        1.36469        0.06725
H         -2.71984       -2.61012       -0.14091
H         -4.95874       -2.09789       -0.13884
