29
BUTYL_4-AMINOBENZOATE.gamout	Energy:    -632.5937124
O          1.25993        0.09823        0.07008
O          0.48145        2.20664        0.17667
N         -4.97588       -1.18569       -0.00504
C          3.55771       -0.57378        0.03324
C          5.02737       -0.14073        0.05104
C          2.59979        0.60355        0.09396
C          6.00663       -1.31395       -0.00802
C         -1.08297        0.40008        0.08366
C          0.26599        1.01474        0.11592
C         -2.20709        1.24471        0.12482
C         -1.29228       -0.98908        0.01281
C         -3.70824       -0.66947        0.02397
C         -3.49462        0.72762        0.09586
C         -2.57697       -1.51768       -0.01698
H          3.34796       -1.15718       -0.88113
H          3.35241       -1.24689        0.88484
H          5.22076        0.45389        0.96286
H          5.21584        0.54227       -0.79759
H          2.74476        1.20398        1.00878
H          2.74343        1.29117       -0.75730
H          5.86792       -1.99392        0.84950
H          5.86657       -1.90991       -0.92583
H          7.05232       -0.96711        0.00744
H         -2.04181        2.32305        0.17966
H         -0.43010       -1.65707       -0.01961
H         -4.35631        1.40096        0.12855
H         -2.72084       -2.60083       -0.07256
H         -5.13030       -2.18179       -0.05681
H         -5.78408       -0.58171        0.02379
