27
BUTYLCYCLOPENTANE.gamout	Energy:    -353.2951669
C         -1.27536        0.38723        0.45484
C         -0.97896       -0.92338       -0.33168
C          0.50518       -0.83619       -0.75956
C          1.14918        0.17740        0.20816
C          0.02521        1.21364        0.39160
H         -2.13479        0.94065        0.04406
H         -1.52914        0.15496        1.50233
H         -1.14395       -1.80235        0.31235
H         -1.64418       -1.04915       -1.20064
H          1.00415       -1.81817       -0.75354
H          0.58487       -0.44482       -1.79051
H          1.30947       -0.32798        1.18179
C          2.48489        0.77427       -0.24647
H          0.00915        1.88406       -0.48735
H          0.17357        1.85356        1.27713
H          2.33409        1.28891       -1.21521
C          3.63396       -0.23072       -0.38277
H          2.78333        1.56435        0.46768
H          3.36749       -1.00379       -1.12665
H          3.76242       -0.76995        0.57530
C          4.96682        0.41030       -0.78400
H          5.23828        1.18130       -0.03916
H          4.83452        0.95384       -1.73799
C          6.11404       -0.59177       -0.92552
H          5.88894       -1.35217       -1.69286
H          6.29923       -1.12685        0.02158
H          7.05372       -0.09455       -1.21599
