21
CAFFEIC_ACID.gamout	Energy:    -647.8454773
C          1.31016       -0.57378        0.27060
C          0.63368        0.59578        0.24469
C         -0.80304        0.78945        0.06419
C          2.76660       -0.68278        0.45670
C         -1.70788       -0.28337       -0.11265
C         -1.32336        2.09443        0.06279
O          3.39481        0.51071        0.60513
O          3.37361       -1.73162        0.47875
C         -3.07087       -0.07250       -0.28396
C         -2.69174        2.31900       -0.10860
O         -3.97177       -1.07010       -0.45662
C         -3.57831        1.25420       -0.28267
O         -4.91089        1.40464       -0.45291
H          0.81748       -1.54133        0.15224
H          1.21660        1.51367        0.37123
H         -1.33924       -1.31335       -0.11711
H         -0.65020        2.94472        0.19683
H          4.33745        0.30326        0.71786
H         -3.08524        3.34078       -0.10826
H         -3.51368       -1.92108       -0.43978
H         -5.13255        2.34548       -0.43311
