53
CANNABIDIOL.gamout	Energy:    -967.4071535
C          0.02747       -0.35172       -2.58605
C          0.83629       -0.32564       -1.31467
C          0.66436       -1.25021       -0.36024
C          1.80152        0.84871       -1.18912
C          3.20943        0.49171       -0.64396
C          1.18176        1.96628       -0.32736
C          3.99377        1.73092       -0.24691
C          4.02195       -0.40415       -1.57527
C          2.02515        3.24122       -0.34339
C          3.49095        2.96640       -0.10678
C          4.43384       -1.68619       -1.16166
C          4.43257       -0.00260       -2.86072
C          4.34050        4.14606        0.28532
O          4.08357       -2.08350        0.09376
C          5.18288       -2.52973       -1.99303
O          4.05765        1.23769       -3.28283
C          5.18879       -0.83856       -3.69300
C          5.56786       -2.11502       -3.27066
C          6.40406       -3.01067       -4.15661
C          7.91493       -2.94811       -3.86153
C          8.75585       -3.82484       -4.79568
C         10.25552       -3.81780       -4.47777
C         11.09041       -4.67511       -5.43148
H         -0.72303       -1.15616       -2.58280
H         -0.49858        0.60734       -2.74505
H          0.68526       -0.49276       -3.46243
H          1.24638       -1.25212        0.56407
H         -0.07287       -2.04961       -0.47968
H          1.94699        1.26156       -2.19962
H          3.07472       -0.09776        0.27533
H          0.15983        2.18337       -0.67712
H          1.08246        1.59756        0.70893
H          5.05868        1.56787       -0.05281
H          1.65328        3.94611        0.42299
H          1.90407        3.77182       -1.30911
H          5.40192        3.87547        0.39065
H          4.26974        4.95411       -0.46655
H          4.00071        4.58225        1.24242
H          4.39820       -2.98501        0.24027
H          5.46356       -3.52479       -1.63384
H          4.42917        1.40117       -4.15906
H          5.47062       -0.48493       -4.68924
H          6.06138       -4.05465       -4.04500
H          6.22997       -2.74174       -5.21248
H          8.08810       -3.24875       -2.81236
H          8.25570       -1.89937       -3.93350
H          8.60095       -3.49237       -5.83990
H          8.38181       -4.86567       -4.75396
H         10.62912       -2.77730       -4.49870
H         10.40556       -4.16886       -3.44010
H         12.15696       -4.65526       -5.15775
H         10.76427       -5.72921       -5.41731
H         11.00683       -4.31818       -6.47216
