2
CARBON_MONOXIDE.out Energy: -113.22501284
C 0.00000000 0.00000000 0.64647909
O 0.00000000 0.00000000 -0.48390766
