30
CARBAMAZEPINE.gamout	Energy:    -762.5640138
O          1.08760        1.72259       -3.27125
N          1.09621        0.37441       -1.41345
N          3.05229        0.74924       -2.64992
C          1.80721       -0.49146       -0.53088
C         -0.32555        0.43855       -1.29018
C          1.66565       -1.89329       -0.65125
C         -1.10229       -0.70227       -1.58963
C          0.68290       -2.50577       -1.54268
C         -0.50998       -1.99319       -1.93509
C          2.69080        0.05287        0.40994
C         -0.94323        1.63924       -0.92747
C          2.49339       -2.71080        0.14477
C         -2.50656       -0.57708       -1.55257
C          1.70390        0.99751       -2.51465
C          3.48600       -0.77520        1.20009
C         -2.33246        1.73756       -0.88456
C          3.39254       -2.16346        1.05508
C         -3.11631        0.62408       -1.20433
H          0.89666       -3.53806       -1.83461
H         -1.15803       -2.65739       -2.51426
H          2.76179        1.13902        0.48991
H         -0.31589        2.50426       -0.70959
H          2.41513       -3.79709        0.04771
H         -3.12147       -1.44627       -1.80071
H          4.18220       -0.34230        1.92205
H         -2.80559        2.68537       -0.61686
H          4.01876       -2.82138        1.66110
H         -4.20592        0.69506       -1.18350
H          3.47145       -0.06622       -2.22146
H          3.43878        1.05916       -3.53166
