8
CARBAMIDE.gamout	Energy:    -224.9848050
N          0.93751        0.95232       -0.14518
C          2.06006        1.73367        0.08101
N          3.22490        1.00414        0.26166
O          2.02574        2.94863        0.11823
H          0.06585        1.46826       -0.09990
H          0.90400        0.01916        0.25065
H          3.31133        0.10087       -0.19144
H          4.06588        1.57045        0.25048
