25
CARVONE.out Energy: -464.35877056
O 1.89070136 -2.04085435 -0.37473960
C -0.24268568 0.90662701 -0.23501530
C 1.00619759 0.11035183 0.19624779
C -1.47868443 0.26887429 0.41109692
C -0.08675010 2.40411342 -0.00915233
C 0.90287428 -1.37742322 -0.11777050
C -1.52712889 -1.22021241 0.20925395
C -0.45347056 -1.99628405 -0.05231393
C 0.92454699 3.09146540 -0.89580922
C -0.52241307 -3.48136765 -0.27142258
C -0.79703841 3.09577101 0.89389942
H -0.34479175 0.76418954 -1.32896170
H 1.13818757 0.20981496 1.29077636
H 1.93198959 0.47650384 -0.26917804
H -2.40058801 0.73013958 0.01953025
H -1.48629072 0.47404361 1.49964753
H -2.51136587 -1.69647591 0.29498505
H 1.94082458 2.68880254 -0.74779084
H 0.68072117 2.93884945 -1.96198878
H 0.96111460 4.17351907 -0.70460612
H -1.55471080 -3.85323320 -0.19634679
H 0.10385949 -4.01464393 0.46217417
H -0.11945917 -3.74701146 -1.26212718
H -0.65069189 4.17271289 1.01658362
H -1.54426903 2.63285174 1.54153886
