14
CHLOROTHALONIL.gamout	Energy:   -2253.7667237
N          7.89764        3.86618       -1.20276
C          7.19097        2.97605       -0.96679
C          6.32036        1.87515       -0.67474
C          6.85219        0.61487       -0.33822
C          4.91662        2.04122       -0.72121
Cl         8.56219        0.39578       -0.27723
C          6.00287       -0.47077       -0.05035
Cl         4.27365        3.58597       -1.13410
C          4.05305        0.96824       -0.43662
C          6.55060       -1.75088        0.29155
C          4.60249       -0.28285       -0.10251
Cl         2.33941        1.18293       -0.49647
N          6.99499       -2.78696        0.56807
Cl         3.57195       -1.61661        0.25148
