8
CHLOROACETIC_ACID.gamout	Energy:    -688.1913764
Cl        -0.36526        2.46102        1.72197
O         -2.10376        0.49657        0.07532
O         -0.28931       -0.82652        0.02542
C          0.02177        1.55246        0.21638
C         -0.78124        0.26962        0.10541
H         -0.20676        2.21118       -0.63388
H          1.08697        1.29710        0.22704
H         -2.53913       -0.37114        0.00709
