5
CHLOROTRIFLUOROMETHANE.gamout	Energy:    -797.2490062
Cl        -1.42198        0.00000        0.00002
C          0.35272       -0.00000       -0.00004
F          0.81017        0.00001        1.24501
F          0.81022       -1.07836       -0.62252
F          0.81020        1.07835       -0.62250
