38
CHLORPHENIRAMINE.gamout	Energy:   -1189.6421516
Cl         5.78760        0.19374       -0.20878
N         -2.77318        2.18839       -0.31233
N         -1.06328       -1.49727        1.21831
C         -0.29553        0.39720       -0.12820
C         -0.78006        1.35954        0.97562
C         -2.28506        1.63970        0.94528
C          1.22790        0.31659       -0.15516
C         -0.91347       -0.98732       -0.01067
C          1.95240        0.89164       -1.20724
C          1.94539       -0.30231        0.88028
C         -1.28127       -1.70991       -1.15703
C         -2.38253        3.56656       -0.52599
C         -4.20047        2.00586       -0.47331
C          3.34936        0.86072       -1.23265
C          3.33936       -0.34222        0.87033
C         -1.80108       -2.99438       -1.01599
C          4.03730        0.24207       -0.18912
C         -1.56411       -2.72640        1.34925
C         -1.94817       -3.52068        0.26772
H         -0.62203        0.81172       -1.09282
H         -0.53452        0.92918        1.95741
H         -0.20664        2.29640        0.89029
H         -2.53742        2.30603        1.80401
H         -2.82003        0.69516        1.12908
H          1.41773        1.37910       -2.02757
H          1.39945       -0.77332        1.70090
H         -1.15534       -1.26355       -2.14496
H         -1.28719        3.66880       -0.50995
H         -2.79723        4.26190        0.24218
H         -2.73197        3.90723       -1.51285
H         -4.45739        0.93643       -0.41661
H         -4.51964        2.37711       -1.46010
H         -4.80377        2.54078        0.29818
H          3.90411        1.31214       -2.05667
H          3.88798       -0.82801        1.67836
H         -2.09134       -3.57471       -1.89515
H         -1.66858       -3.10081        2.37374
H         -2.35092       -4.52176        0.43133
