12
CHLOROBENZENE.gamout	Energy:    -691.3345928
C         -0.24640        1.21718        0.00000
C         -0.93514        0.00000        0.00000
C          1.15172        1.20919       -0.00000
C          1.85468       -0.00000       -0.00000
C          1.15172       -1.20919       -0.00000
C         -0.24640       -1.21718        0.00000
Cl        -2.68638       -0.00000       -0.00000
H         -0.80378        2.15579        0.00000
H          1.69264        2.15939        0.00000
H          2.94754       -0.00000        0.00000
H          1.69263       -2.15940       -0.00000
H         -0.80378       -2.15579       -0.00000
