27
CIS,TRANS-1,3,5-TRIMETHYLCYCLOHEXANE.gamout	Energy:    -353.2974923
C          2.05140        1.25353        4.03510
C          2.25280        1.13103        5.54842
C          1.40526        2.58494        3.63107
C          3.37778        1.05928        3.25992
C          1.00076        2.61449        2.13923
C          3.40056        1.75023        1.87600
C          0.87390        4.05294        1.62773
C          1.98679        1.77964        1.28319
H          1.35617        0.44929        3.72809
H          2.89794        1.94175        5.93041
H          1.29374        1.18523        6.08930
H          2.73292        0.17436        5.81183
H          2.12033        3.40320        3.84079
H          0.52058        2.78801        4.25775
H          3.56723       -0.02193        3.13353
H          4.21688        1.44598        3.86541
H          0.00513        2.14362        2.05389
H          0.19660        4.64843        2.26251
H          1.85386        4.56197        1.62414
H          0.47930        4.08234        0.59908
H          2.01311        2.17764        0.25481
H          1.62510        0.73947        1.19653
C          4.41642        1.09785        0.93534
H          3.71760        2.79917        2.02561
H          5.42053        1.06721        1.38995
H          4.12968        0.05808        0.69753
H          4.49722        1.64673       -0.01692
