21
CIS-2-HEPTENE.gamout	Energy:    -274.7635485
C          0.65624        4.28226        2.26591
C          1.77300        3.81038        1.33267
C          2.59816        2.65020        1.90048
C          3.72312        2.17622        0.96246
C          4.48224        0.99077        1.49478
C          5.78407        0.91313        1.81063
C          6.82958        1.98454        1.69830
H          1.05822        4.63101        3.23263
H          0.08533        5.11507        1.82499
H         -0.05639        3.46789        2.48122
H          1.33713        3.50459        0.36344
H          2.44648        4.65795        1.10731
H          1.92808        1.79816        2.12228
H          3.03861        2.94915        2.86946
H          4.40445        3.01807        0.75665
H          3.27020        1.90228       -0.01062
H          3.87709        0.08819        1.65279
H          6.14493       -0.04860        2.19695
H          7.64627        1.67072        1.02335
H          6.43186        2.93772        1.32027
H          7.29873        2.18131        2.67915
