12
CIS-2-BUTENE.gamout	Energy:    -156.9952137
C          1.18156        1.42260        0.58190
C          2.47203        1.05585        0.61077
C          3.66871        1.90730        0.92361
C          0.59989        2.77920        0.85859
H          0.44985        0.64546        0.32705
H          2.69585        0.00687        0.37836
H          3.40684        2.95067        1.15213
H          4.22693        1.50421        1.78798
H          4.37841        1.91707        0.07662
H         -0.11797        2.73663        1.69762
H          1.36268        3.53071        1.10862
H          0.03299        3.15215       -0.01339
