24
CIS-1-METHYL-3-ETHYLCYCLOPENTANE.gamout	Energy:    -314.0404433
C          6.88722        1.29456        1.47765
C          5.62837        1.01839        2.30346
C          4.48555        2.01453        2.07962
C          3.23583        1.77132        2.93969
C          3.90422        2.04865        0.64819
C          2.16293        2.67459        2.31054
C          2.45638        2.58877        0.78788
C          0.72430        2.33824        2.69324
H          7.67792        0.55860        1.69592
H          7.29924        2.29556        1.69315
H          6.68458        1.24828        0.39487
H          5.89074        1.02007        3.37654
H          5.26011       -0.00221        2.08545
H          4.86249        3.02805        2.32197
H          3.39951        1.97810        4.00992
H          2.92990        0.71044        2.85420
H          3.88749        1.02134        0.24297
H          4.51712        2.64869       -0.04141
H          2.37365        3.70895        2.64110
H          1.74009        1.90808        0.29778
H          2.32869        3.57114        0.30638
H          0.56671        2.41385        3.78161
H          0.01029        3.02198        2.20570
H          0.46156        1.31021        2.38787
