4
CIS-DIFLUORODIAZINE.gamout	Energy:    -308.6488125
N         17.93488       29.07459       -0.00000
N         16.97424       28.31934       -0.00000
F         15.86015       29.11235        0.00000
F         19.04893       28.28153        0.00000
