12
CIS-CROTONIC_ACID.gamout	Energy:    -306.0776961
O         -2.38614        0.38630       -0.67428
C         -1.32965        0.48557       -0.11072
C         -0.44262       -0.69106        0.14708
O         -0.90134        1.69684        0.33255
C          0.89938       -0.74807        0.08658
C          1.87760        0.34611       -0.22918
H         -1.00562       -1.61494        0.30527
H         -0.12222        1.58088        0.89394
H          1.35064       -1.73404        0.25421
H          1.39762        1.27843       -0.55836
H          2.51863        0.56616        0.64415
H          2.55918        0.01717       -1.03128
