24
CIS-1,4-DIMETHYLCYCLOHEXANE.gamout	Energy:    -314.0479326
C          0.51295        2.83519        1.93584
C          2.02287        3.00692        2.12022
C          2.80736        2.61204        0.85954
C          2.54864        2.22209        3.33131
C          4.32147        2.77487        1.04402
C          4.06299        2.38398        3.51483
C          4.86939        2.00560        2.25924
H          0.25136        1.77996        1.74192
H         -0.04199        3.15341        2.83407
H          0.14100        3.42967        1.08508
H          2.22241        4.08071        2.31073
H          2.56585        1.56403        0.60112
H          2.47130        3.22214        0.00416
H          2.02768        2.55372        4.24540
H          2.29334        1.15359        3.20478
H          4.85165        2.45955        0.12952
H          4.54585        3.84867        1.17753
H          4.27675        3.43927        3.76404
H          4.40706        1.78686        4.37595
C          4.91979        0.49049        2.02496
H          5.91061        2.33666        2.42057
H          5.35634       -0.02695        2.89453
H          3.92364        0.05227        1.85072
H          5.54045        0.24941        1.14679
