27
CLOFENAMIC_ACID.gamout	Energy:   -1625.1203257
Cl         2.65309        0.06770        3.50465
Cl         5.14364        1.33699        2.02491
O         -3.22241       -1.33310        3.60461
O         -1.22062       -0.35302        3.67201
N          0.51888       -0.90600        1.70348
C         -0.37957       -1.87826        1.31120
C          1.61214       -0.38252        1.01698
C         -1.62378       -2.02983        2.00021
C         -0.10016       -2.78167        0.26095
C          2.70110        0.13671        1.76312
C          1.66931       -0.28370       -0.38721
C         -2.52987       -3.02875        1.59512
C         -1.01160       -3.76070       -0.11155
C         -2.24288       -3.88905        0.54477
C          3.80432        0.70498        1.10968
C          2.77661        0.27251       -1.02260
C          3.85215        0.76654       -0.28507
C         -1.96692       -1.16278        3.14441
H          0.30866       -0.49023        2.61520
H          0.86196       -2.72658       -0.24556
H          0.82115       -0.62051       -0.98193
H         -3.47175       -3.11542        2.13659
H         -0.74977       -4.44414       -0.92335
H         -2.95719       -4.65745        0.24530
H          2.79348        0.33732       -2.11327
H          4.72234        1.20719       -0.77130
H         -3.31510       -0.72721        4.35925
