9
CYANURIC_CHLORIDE.gamout	Energy:   -1658.2157881
C         -0.75248       -1.01297       -0.25180
N          0.55317       -1.23986       -0.15995
N         -1.35187        0.16367       -0.10719
Cl        -1.76356       -2.37247       -0.59035
C          1.27327       -0.15450        0.10131
C         -0.52023        1.16675        0.15098
N          0.79993        1.07558        0.26767
Cl         2.98259       -0.36187        0.23777
Cl        -1.21911        2.73361        0.35330
