22
CYCLOHEPTANOL.gamout	Energy:    -349.9045767
O         -2.16490        1.32928       -0.74786
C         -3.00293        0.20763       -0.49225
C         -3.65769        0.45691        0.87008
C         -3.99817        0.02896       -1.64363
C         -4.90710        1.34349        0.84492
C         -5.11130       -1.00453       -1.44252
C         -6.17116        0.71493        0.18795
C         -6.03620       -0.75521       -0.22922
H         -1.80508        1.24320       -1.64032
H         -2.38428       -0.71088       -0.40689
H         -2.88697        0.92867        1.49959
H         -3.88731       -0.51014        1.34454
H         -4.44249        1.01888       -1.84161
H         -3.43320       -0.23414       -2.55653
H         -4.65089        2.29065        0.34298
H         -5.14008        1.61502        1.88645
H         -4.67891       -2.01769       -1.37126
H         -5.71794       -1.00582       -2.36402
H         -7.01589        0.79166        0.89089
H         -6.46764        1.31110       -0.69184
H         -5.69431       -1.34487        0.63717
H         -7.03740       -1.14878       -0.46683
