30
CYCLOHEXYL_BUTYRATE.out Energy: -541.99739451
O 0.52565555 -0.26019498 -0.25062774
O -1.01050342 -1.25866002 1.06607102
C 0.12471190 1.05348505 0.19633746
C 1.34896350 1.96035751 0.09983644
C -1.04101516 1.57392780 -0.64745010
C 0.99709603 3.40533651 0.48012526
C -1.39336531 3.01944331 -0.26798064
C -0.17087758 3.94240446 -0.35811254
C -0.11761508 -1.33064307 0.25596470
C 0.43220088 -2.61720864 -0.32711321
C -0.23134800 -3.87669847 0.22573354
C 0.33680225 -5.16110058 -0.37790053
H -0.20441852 0.96712895 1.24481209
H 1.72811611 1.92512397 -0.93698499
H 2.15069256 1.56606352 0.74537026
H -1.91178353 0.91318670 -0.51438827
H -0.74821093 1.52398873 -1.71165516
H 0.72409512 3.44450265 1.55080857
H 1.88449126 4.04928592 0.36468943
H -2.20581919 3.38883453 -0.91528005
H -1.78889689 3.03849614 0.76413899
H -0.43626103 4.96256773 -0.03400899
H 0.14698901 4.02348580 -1.41408528
H 0.32341106 -2.55407352 -1.42464498
H 1.52220417 -2.62336076 -0.14954195
H -0.11841086 -3.88954271 1.32255225
H -1.31743610 -3.81867019 0.04470063
H -0.15805227 -6.05200147 0.03959643
H 0.20107264 -5.18827037 -1.47237177
H 1.41755978 -5.25772715 -0.17894615
