10
CYCLOPROPYL_CYANIDE.gamout	Energy:    -209.8502434
N          2.12490       -0.00075       -0.24595
C         -0.34697        0.00034        0.57034
C         -1.40465        0.74842       -0.22499
C         -1.40403       -0.74848       -0.22513
C          1.02352        0.00059        0.11896
H         -0.45100        0.00022        1.66032
H         -1.07668        1.26747       -1.12936
H         -2.16648        1.27709        0.35369
H         -2.16537       -1.27797        0.35346
H         -1.07552       -1.26701       -1.12958
