15
CYCLOPENTYL_CHLORIDE.gamout	Energy:    -655.6751621
Cl         1.77202       -1.89979        0.07060
C          3.36678       -1.23502        0.62064
C          3.26833        0.17031        1.21182
C          4.00970       -2.05298        1.73932
C          4.61552        0.34094        1.94576
C          5.08579       -1.10166        2.30971
H          4.00213       -1.23493       -0.27871
H          3.07986        0.94241        0.45199
H          2.42535        0.18952        1.92272
H          4.41337       -3.01345        1.38721
H          3.23720       -2.27459        2.49415
H          4.51325        0.98248        2.83419
H          5.35245        0.83068        1.28899
H          6.06912       -1.31151        1.85913
H          5.20471       -1.23827        3.39528
