10
CYCLOBUTENE.gamout	Energy:    -155.7519172
C          0.66133        2.27203        0.91393
C          2.22901        2.27445        0.98385
C          2.11838        0.76033        0.99165
C          0.77548        0.75815        0.93235
H          0.15735        2.72875        1.78361
H          0.23700        2.71302       -0.00498
H          2.73193        2.71723        0.10639
H          2.65225        2.73232        1.89495
H          2.87129       -0.03284        1.03174
H          0.02449       -0.03741        0.90603
