27
CYCLOHEXYL_PROPIONATE.out Energy: -502.71208769
O -0.58307406 -0.72433194 -0.34713777
O 0.86361222 -1.82541020 0.98958676
C -0.15651767 0.55669462 0.16650849
C 1.06058375 1.06639840 -0.60836868
C -1.34356793 1.51009213 0.05643109
C 1.44756124 2.48165869 -0.15586089
C -0.95795785 2.92588453 0.50779142
C 0.26345101 3.45206009 -0.25834733
C 0.00285343 -1.83473195 0.14267859
C -0.56485017 -3.08009361 -0.51085042
C 0.04545844 -4.37141299 0.02096895
H 0.12537612 0.41877870 1.22318131
H 0.81048569 1.06925868 -1.68461304
H 1.90136759 0.36942867 -0.46791247
H -2.18481620 1.12105171 0.65304475
H -1.68003553 1.52812320 -0.99546919
H 2.29967339 2.84586685 -0.75314393
H 1.79874037 2.44488343 0.89169910
H -0.73056184 2.91444813 1.58973967
H -1.81653453 3.60572313 0.38076305
H 0.55044758 4.44784212 0.11888320
H -0.00523476 3.58752665 -1.32237192
H -1.65933119 -3.05559233 -0.37079578
H -0.41380220 -2.97506663 -1.59934331
H -0.12747874 -4.47533476 1.10270966
H -0.39148011 -5.24590157 -0.48476673
H 1.13437962 -4.38883460 -0.13618143
