32
CYCLOHEXYLDIETHYLAMINE.out Energy: -448.13800352
N 0.08258332 1.12444095 0.22956685
C 0.05182960 -0.28057133 -0.21715396
C 1.35035770 -1.00883985 0.20000623
C -1.14591597 -1.07644123 0.33472475
C 1.38685040 -2.47110698 -0.26037380
C -1.12764063 -2.54251595 -0.12268464
C 0.17507757 -3.25319679 0.25514649
C -1.19189406 1.79254646 0.48573581
C 1.03054101 1.95427505 -0.51204769
C -2.08546248 2.10529435 -0.72805973
C 1.58062431 3.13655047 0.28767281
H -0.01639917 -0.33245706 -1.33057342
H 1.41966473 -0.95489959 1.30105203
H 2.23531061 -0.48305288 -0.18979431
H -2.09808305 -0.62271171 0.02273486
H -1.12026369 -1.03496280 1.43889951
H 2.32474871 -2.94546351 0.07423595
H 1.40046478 -2.50758455 -1.36567102
H -1.25677688 -2.58008635 -1.22036113
H -1.99492681 -3.07203762 0.30645525
H 0.18032528 -4.28392439 -0.13824943
H 0.23790865 -3.33847104 1.35578967
H -1.76349638 1.19894074 1.21364873
H -0.97067698 2.73781716 1.00773867
H 1.88025602 1.32340695 -0.80711956
H 0.60043656 2.32658562 -1.46912597
H -1.59904766 2.79280885 -1.43775905
H -2.36096484 1.19560371 -1.28533266
H -3.01960874 2.58720159 -0.39520461
H 0.80506305 3.87944366 0.53163721
H 2.02312254 2.78872819 1.23456766
H 2.35903928 3.65970200 -0.29129930
