13
CYCLOPENTENE.gamout	Energy:    -195.0473038
C          0.69506        2.15078        1.28017
C          1.91811        3.07176        0.99850
C          3.10662        2.14974        1.11721
C          2.75479        0.89306        1.40958
C          1.26130        0.72530        1.54453
H          0.11862        2.51292        2.14555
H         -0.00245        2.14814        0.42838
H          1.86978        3.53908       -0.00234
H          1.98376        3.91066        1.71557
H          4.13523        2.49183        0.97586
H          3.45586        0.06453        1.54036
H          0.87365       -0.02029        0.82595
H          0.98705        0.34429        2.54538
