19
CYCLOPENTYL_METHYL_ETHER.gamout	Energy:    -310.6417041
C         -1.87456        8.69454        1.29690
C         -1.00566        9.38856        2.37519
C         -1.28936        8.61672        3.68110
H          0.06187        9.41249        2.10911
H         -1.32880       10.43137        2.53398
C         -2.87945        7.79365        2.07312
H         -1.26037        8.09156        0.60980
H         -2.39520        9.43939        0.67544
C         -2.76024        8.23059        3.53971
H         -3.36355        9.13298        3.74082
H         -3.06772        7.45788        4.25995
H         -2.58932        6.73383        1.97765
H         -3.90707        7.87497        1.68854
O         -1.08433        9.34468        4.86849
H         -0.66915        7.69268        3.70106
C          0.25976        9.57234        5.19612
H          0.28446       10.09148        6.16629
H          0.77963       10.20702        4.45135
H          0.82958        8.62477        5.29231
