17
CYCLOPENTYLAMINE.gamout	Energy:    -251.5456192
N          0.66180        2.62472        1.78789
C          2.03064        2.14200        1.88966
C          3.02731        3.02285        1.11979
C          4.31810        2.18318        1.00738
C          3.89141        0.70606        1.26352
C          2.35653        0.73368        1.34874
H          0.34229        2.58014        0.81759
H          0.02948        2.02760        2.32189
H          2.30297        2.16568        2.96274
H          2.60378        3.22364        0.11850
H          3.17862        4.00027        1.60133
H          4.79307        2.30883        0.02205
H          5.06422        2.50527        1.75147
H          4.25466        0.02068        0.48259
H          4.31628        0.34564        2.21502
H          1.90419        0.63606        0.34401
H          1.94275       -0.07436        1.97328
