11
CYRENE.gamout	Energy:    -454.6782008
O         27.28973       -7.45161       -0.09213
O         25.93076       -7.35816       -1.88028
O         28.46786       -9.26142       -2.88613
C         27.24492       -6.08764       -0.55513
C         28.40656       -5.98265       -1.49116
C         27.04076       -8.20719       -1.18638
C         26.00776       -6.12901       -1.53464
C         28.79348       -6.92492       -2.19825
C         28.23693       -8.28247       -2.24301
H         27.17218       -5.40471        0.29669
H         26.63303       -9.19821       -0.96056
