30
CYTARABINE.gamout	Energy:    -890.0181908
O          0.47752        2.26869        2.03831
O          0.32746        2.69418       -0.90551
O         -0.10102        5.33170        1.43114
O         -1.97496        0.99309        2.45117
O          4.01280        3.44941        0.56284
N          2.43435        1.82004        0.82075
N          4.65946        1.29205        0.13170
N          5.23859       -0.86214       -0.36483
C          0.76218        3.57722        0.10589
C         -0.47010        4.10400        0.83922
C          1.50015        2.85125        1.25328
C         -0.74927        3.00092        1.87978
C         -1.83766        2.01190        1.48930
C          2.05782        0.52589        0.67327
C          3.77079        2.25612        0.49843
C          2.94842       -0.41881        0.26210
C          4.29234        0.03219        0.01219
H          1.36188        4.41187       -0.28402
H         -1.30816        4.21469        0.12681
H          2.08529        3.58703        1.82503
H         -1.00259        3.45425        2.85627
H         -1.60849        1.61374        0.48102
H         -2.80336        2.54051        1.42674
H          1.07878        2.47595       -1.47162
H         -0.81464        5.62696        2.01098
H          1.02252        0.30048        0.92411
H         -1.08578        0.65415        2.62906
H          2.65425       -1.46209        0.15287
H          5.03716       -1.84768       -0.43988
H          6.18247       -0.52667       -0.51071
