31
D-MENTHOL.out Energy: -468.01034626
O 2.37179661 0.43162091 0.33332707
C -0.08368992 0.68214325 0.33979027
C 1.15058872 -0.10345480 -0.15546987
C -1.36663931 0.04002328 -0.22121667
C -0.25025182 -2.24445943 -0.36167681
C 1.03509773 -1.59667123 0.17522420
C -1.47370883 -1.45033249 0.12203952
C 0.03794391 2.21094728 0.10009950
C -0.33913846 -3.72817276 0.00404394
C -0.04802314 2.62222130 -1.37678346
C -0.96764943 3.00482904 0.94569871
H -0.10656300 0.54333235 1.44088057
H 1.21955473 0.00414937 -1.25236266
H -1.38396219 0.15462907 -1.31967358
H -2.25340406 0.57449371 0.15621727
H -0.22261655 -2.16801004 -1.46618755
H 1.06101138 -1.71225515 1.27759341
H 1.92753545 -2.11459220 -0.21410969
H -1.56838195 -1.57081684 1.21796123
H -2.39413826 -1.87410339 -0.31547433
H 1.04888302 2.47707450 0.45107415
H -0.36933552 -3.86455260 1.09879089
H -1.24841287 -4.19045548 -0.41352165
H 0.52912520 -4.29000380 -0.37710167
H -1.05011917 2.43773608 -1.79818896
H 0.15732880 3.69932058 -1.48770382
H 0.68492975 2.08671626 -2.00032239
H -2.00901076 2.81656382 0.63429234
H -0.79219022 4.08882294 0.85027884
H -0.88872186 2.74826103 2.01524713
H 2.38210396 0.31295892 1.29354720
