17
D-PROLINE.gamout	Energy:    -400.6318852
O         -2.20040        1.08415       -0.06423
O         -2.09095       -1.15463       -0.15918
N          0.70448       -1.06409       -0.17479
C         -0.06513        0.12163       -0.48924
C          0.65628        1.23572        0.31152
C          2.08593        0.67281        0.53517
C          2.09696       -0.65882       -0.23984
C         -1.53892       -0.08437       -0.20413
H         -0.02029        0.39604       -1.57301
H          0.14477        1.41202        1.26825
H          0.65398        2.18580       -0.24051
H          2.87396        1.35715        0.18791
H          2.25702        0.48567        1.60599
H          2.45287       -0.48111       -1.28126
H          2.75664       -1.41713        0.21054
H          0.45469       -1.87230       -0.73991
H         -3.13778        0.85880        0.07062
