17
DEA+1.gamout	Energy:    -213.8661514
C         -8.41498        2.23131        2.03794
C         -7.28905        1.83428        1.09841
H         -9.37341        1.92925        1.58964
H         -8.46003        3.32129        2.19554
H         -8.33921        1.72667        3.01462
N         -5.93308        2.22450        1.64923
H         -7.37645        2.32341        0.11683
H         -7.25106        0.74713        0.93406
H         -5.92512        3.23866        1.83327
H         -5.81253        1.79018        2.57617
C         -4.74301        1.87110        0.78168
C         -3.43118        2.26848        1.43675
H         -4.89884        2.38351       -0.17911
H         -4.80548        0.78735        0.60356
H         -3.36495        3.35491        1.60958
H         -2.60292        1.99544        0.76592
H         -3.26599        1.73885        2.38899
