26
DELTA-3-CARENE.gamout	Energy:    -390.1074495
C         -0.00887        0.54212       -1.62735
C          0.06102       -0.78303       -1.43424
C         -0.27163       -1.42822       -0.10910
C         -0.41379        1.56249       -0.59786
C         -0.75104        1.00277        0.77455
C         -0.67814       -0.49087        1.01660
C         -2.01812        0.21979        1.06087
C         -3.04098       -0.01183       -0.03436
C         -2.64717        0.41291        2.43139
H         -0.40983        1.63539        1.59992
H         -0.29298       -0.79547        1.99457
C          0.48099       -1.72724       -2.54286
H          0.25250        0.94248       -2.61423
H         -1.05362       -2.19514       -0.27854
H          0.61458       -2.00428        0.21560
H         -1.25917        2.16139       -0.99070
H          0.41236        2.28869       -0.48543
H         -3.74174        0.83845       -0.10039
H         -3.64222       -0.91240        0.17964
H         -2.58296       -0.14347       -1.02398
H         -3.23145       -0.47440        2.73202
H         -3.33141        1.27979        2.43807
H         -1.88354        0.58645        3.20594
H         -0.23249       -1.71349       -3.38447
H          0.54181       -2.76703       -2.18611
H          1.47035       -1.46208       -2.95080
