54
DESOXYCORTONE.gamout	Energy:   -1042.5454364
O          5.10980        0.57862       -0.82627
O         -6.62489       -0.67407        0.88254
O          4.05130       -1.68683        1.68310
C          0.86219        1.36440        0.22814
C          1.83261        0.22662       -0.18308
C         -0.56413        1.22880       -0.33197
C         -1.16050       -0.15414        0.05740
C         -2.62257       -0.38718       -0.48384
C          3.13888        0.71775        0.54977
C          1.22666       -1.09175        0.31121
C         -0.18875       -1.31365       -0.25595
C          1.66220        2.65017       -0.02476
C         -1.48904        2.34015        0.17595
C          3.11293        2.26697        0.37423
C         -3.49773        0.80766       -0.11224
C          2.07638        0.16618       -1.70003
C         -2.92101        2.18022       -0.34728
C         -3.20680       -1.67172        0.15339
C         -2.63695       -0.52296       -2.02312
C          4.43654        0.09237        0.05748
C         -4.71898       -1.83658       -0.00257
C         -4.76109        0.66873        0.34993
C         -5.47988       -0.61339        0.47088
C          4.94296       -1.19872        0.70980
H          0.76780        1.27281        1.32792
H         -0.51669        1.30655       -1.43397
H         -1.26082       -0.12393        1.15976
H          3.02281        0.44362        1.60804
H          1.17770       -1.07066        1.41272
H          1.86744       -1.94767        0.05293
H         -0.12604       -1.46844       -1.34533
H         -0.58297       -2.25290        0.15824
H          1.28586        3.50067        0.56238
H          1.60899        2.94578       -1.08623
H         -1.10974        3.33069       -0.11837
H         -1.50086        2.32439        1.28156
H          3.84076        2.57235       -0.39119
H          3.41478        2.75440        1.31414
H          2.63659        1.03469       -2.07019
H          2.66504       -0.72765       -1.95812
H          1.13827        0.10856       -2.26743
H         -2.92437        2.37328       -1.43764
H         -3.57878        2.94062        0.09762
H         -2.97155       -1.66244        1.23177
H         -2.70451       -2.55327       -0.26718
H         -2.19776        0.35309       -2.52027
H         -2.06952       -1.40793       -2.34252
H         -3.66559       -0.62595       -2.39681
H         -5.08931       -2.70417        0.56129
H         -4.99900       -2.01302       -1.05790
H         -5.35184        1.54931        0.61586
H          5.93791       -0.95290        1.13169
H          5.11885       -1.92109       -0.11228
H          4.44858       -2.45114        2.11823
