3
DEUTERIUM_OXIDE.gamout	Energy:     -76.3211757
O          0.85517        0.00430        0.00000
H          1.69504        0.48337        0.00000
H          1.13143       -0.92231        0.00000
