27
DI-ISO-BUTYL_SULFIDE.gamout	Energy:    -713.2564939
C          1.70748        0.04238       -0.07225
S          3.31146        0.93020        0.02387
C          4.45155       -0.50650        0.09181
C          0.51546        1.00966       -0.10796
C          5.92499       -0.07539        0.10930
C          0.49643        1.86488       -1.37828
C         -0.79636        0.22941        0.04398
C          6.29195        0.70184        1.37621
C          6.82725       -1.30514       -0.05933
H          1.70324       -0.59814       -0.97274
H          1.62565       -0.61707        0.80752
H          4.22134       -1.10866        0.98966
H          4.25930       -1.13811       -0.79132
H          0.61435        1.68249        0.76421
H          6.08313        0.58646       -0.76269
H         -0.35470        2.56443       -1.36735
H          1.41915        2.45379       -1.48812
H          0.39621        1.23163       -2.27738
H         -1.66249        0.91093        0.05332
H         -0.81770       -0.35133        0.98006
H         -0.93815       -0.47645       -0.79290
H          7.34823        1.01468        1.35304
H          5.67396        1.60429        1.49733
H          6.14879        0.07766        2.27594
H          7.89084       -1.01751       -0.08233
H          6.60480       -1.84335       -0.99435
H          6.69147       -2.01168        0.77785
