39
DI-N-HEXYL_ETHER.gamout	Energy:    -547.3855423
C          4.52042        0.94552        7.27223
O          4.72290        1.80408        6.17538
C          4.23625        1.30341        4.95367
C          5.07016        1.56617        8.54843
C          4.47669        2.34091        3.86664
C          6.60018        1.65905        8.65452
C          4.07723        1.89135        2.45467
C          7.27232        2.74055        7.79919
C          2.57474        1.67278        2.23237
C          8.79308        2.79840        7.97720
C          2.21178        1.31331        0.78722
C          9.46869        3.88621        7.13953
C          0.71412        1.09579        0.56281
H          5.00426       -0.03929        7.08678
H          3.43490        0.74370        7.39802
H          4.74751        0.34942        4.69599
H          3.15446        1.06787        5.04534
H          4.61553        2.56568        8.67089
H          4.69853        0.95174        9.38630
H          5.55009        2.59446        3.87986
H          3.93708        3.26454        4.14179
H          6.85873        1.83809        9.71384
H          7.03453        0.67147        8.40585
H          4.43350        2.65232        1.73815
H          4.62354        0.96320        2.20026
H          7.02474        2.57557        6.73775
H          6.83715        3.72445        8.05897
H          2.02857        2.58934        2.52704
H          2.20713        0.87405        2.90260
H          9.03406        2.95775        9.04530
H          9.22770        1.81508        7.71630
H          2.76220        0.40104        0.49054
H          2.57090        2.11298        0.11291
H         10.55975        3.89286        7.29201
H          9.28403        3.73774        6.06179
H          9.09086        4.88970        7.40053
H          0.13233        2.00060        0.80894
H          0.50016        0.83995       -0.48675
H          0.32558        0.27551        1.19045
