27
DI-N-BUTYL_ETHER.gamout	Energy:    -390.3626179
C          3.42942        5.20203        0.56654
O          3.34439        6.26422        1.48338
C          4.58084        6.82949        1.84053
C          2.02743        4.68900        0.27342
C          4.33903        7.97198        2.81529
C          1.99905        3.52720       -0.72191
C          5.62448        8.66464        3.27148
C          0.58824        3.01426       -1.01408
C          5.37852        9.81608        4.24744
H          3.92189        5.53690       -0.37317
H          4.06207        4.38251        0.97383
H          5.11489        7.20056        0.93778
H          5.24297        6.06274        2.30021
H          1.42476        5.53301       -0.10670
H          1.56481        4.38575        1.22936
H          3.78924        7.57325        3.68626
H          3.66387        8.69981        2.33124
H          2.47809        3.84410       -1.66664
H          2.61848        2.69765       -0.33373
H          6.29366        7.92009        3.74080
H          6.16829        9.04237        2.38602
H          0.60513        2.17985       -1.73294
H          0.09372        2.65347       -0.09633
H         -0.04728        3.80903       -1.44024
H          4.74394       10.59640        3.79416
H          4.86858        9.46636        5.16108
H          6.32323       10.29170        4.55444
