28
DI-SEC-BUTYLAMINE.out Energy: -370.78483833
N 0.29977391 -0.01160811 -0.01233271
C -0.45223605 -1.22326675 0.32265454
C -0.45236091 1.18589844 -0.39058594
C 0.46866779 -2.45236290 0.21752296
C 0.42040929 2.43652348 -0.19262703
C -1.13436416 -1.16191735 1.70018794
C -0.92524980 1.08544213 -1.84561712
C 1.03986048 -2.69147846 -1.17903954
C 0.74781948 2.78030228 1.26256802
H -1.24041185 -1.33461250 -0.44344590
H -1.35676211 1.31818428 0.24742567
H 0.94439394 0.19804997 0.74786972
H 1.29560743 -2.32759103 0.94265133
H -0.09169209 -3.34237575 0.55399170
H 1.35345807 2.29801463 -0.76819261
H -0.10175073 3.29275095 -0.65170454
H -1.78639308 -0.27900455 1.79170135
H -0.37986733 -1.10896711 2.50459332
H -1.75468269 -2.05429539 1.88472171
H -1.52971826 0.18103686 -2.01513228
H -0.06030461 1.04232535 -2.52703582
H -1.54630269 1.95442439 -2.11775031
H 0.23848242 -2.90715512 -1.90609950
H 1.57671544 -1.79873660 -1.53174595
H 1.73552193 -3.54594465 -1.18827725
H -0.17050238 2.93413017 1.85349142
H 1.33365705 1.99238717 1.76471398
H 1.34217718 3.70567195 1.32532989
