27
DI-TERT-BUTYL_ETHER.gamout	Energy:    -390.3594833
O         34.96157       26.64864       -0.00301
C         33.61081       26.16415        0.06177
C         36.17909       25.88976       -0.07874
C         32.79337       27.41820       -0.27074
C         33.27711       25.06661       -0.95891
C         33.25532       25.70090        1.48406
C         36.44121       25.40392       -1.51350
C         37.23794       26.93253        0.29632
C         36.26696       24.71512        0.90615
H         31.71178       27.21630       -0.22233
H         33.03347       28.22263        0.44043
H         33.04209       27.77433       -1.28158
H         32.19886       24.84145       -0.91909
H         33.81305       24.12806       -0.75655
H         33.51407       25.39185       -1.98280
H         33.57303       26.46205        2.21241
H         32.16620       25.56394        1.58136
H         33.73050       24.74739        1.75093
H         37.47747       25.04261       -1.61373
H         35.77683       24.58078       -1.80906
H         36.29752       26.23453       -2.22101
H         38.25380       26.50998        0.24722
H         37.05593       27.30174        1.31638
H         37.17965       27.79001       -0.39028
H         36.09570       25.04744        1.94072
H         35.54894       23.91617        0.67110
H         37.27483       24.27119        0.86022
