42
DIBUTYL_PHTHALATE.gamout	Energy:    -922.6307388
C          7.07507        0.67426       -1.46118
C          6.88726       -0.31992       -0.50063
C          6.18419        1.74675       -1.53238
C          5.09768        1.80264       -0.66030
C          4.87550        0.78936        0.28538
C          3.78363        0.90176        1.31551
C          5.79471       -0.27973        0.37527
C          5.78121       -1.34030        1.46115
O          4.80981       -2.27182        1.47983
O          6.68950       -1.40757        2.24467
C          3.78200       -2.39355        0.49721
C          3.50200       -3.87300        0.28530
C          2.37467       -4.13314       -0.71767
C          2.09251       -5.61968       -0.94117
O          2.62504        1.52493        0.99746
O          3.94060        0.49222        2.43763
C          2.03484        1.56479       -0.30633
C          0.55851        1.21567       -0.18043
C         -0.19753        1.34930       -1.50562
C         -1.68404        1.00881       -1.39237
H          7.93120        0.62277       -2.13694
H          7.60555       -1.13607       -0.40799
H          6.34210        2.54868       -2.25603
H          4.43140        2.66479       -0.69132
H          2.87838       -1.87390        0.86331
H          4.08879       -1.91898       -0.45013
H          4.43377       -4.35938       -0.05288
H          3.25667       -4.32401        1.26220
H          1.45162       -3.63417       -0.37011
H          2.62962       -3.65876       -1.68355
H          1.28065       -5.76392       -1.67040
H          2.98262       -6.14723       -1.32281
H          1.79000       -6.11667       -0.00423
H          2.14835        2.58286       -0.72017
H          2.54977        0.86996       -0.98959
H          0.46576        0.18669        0.20938
H          0.10891        1.87617        0.58116
H         -0.08507        2.38100       -1.88594
H          0.27251        0.69660       -2.26434
H         -2.19011        1.11728       -2.36368
H         -1.83509       -0.02893       -1.05092
H         -2.19556        1.67134       -0.67427
