21
DICHLORODIISOPROPYL_ETHER.gamout	Energy:   -1230.6612123
O         51.95326       29.58981       -0.00383
C         50.71179       28.99927        0.34269
C         53.04247       28.74790       -0.34588
C         50.52012       29.02249        1.85673
C         49.59813       29.78959       -0.34039
C         53.24306       28.72865       -1.85834
C         54.29317       29.28106        0.34812
Cl        51.67044       27.92693        2.72989
Cl        51.88570       27.90815       -2.73542
H         50.68056       27.95227       -0.00670
H         52.84693       27.71756       -0.00051
H         50.69939       30.03539        2.24324
H         49.50898       28.69662        2.13692
H         48.60838       29.36850       -0.10515
H         49.74443       29.75857       -1.42894
H         49.61950       30.84243       -0.01676
H         53.29308       29.75503       -2.24743
H         54.15877       28.18619       -2.13072
H         55.17447       28.66419        0.11373
H         54.13456       29.27173        1.43543
H         54.49395       30.31783        0.03463
