18
DICHLONE.gamout	Energy:   -1453.2243321
C          1.67144        0.03295        0.08385
C          0.18470       -0.19653        0.06380
C          2.20790        1.28092        0.10656
Cl         2.63874       -1.39113        0.07605
O         -0.27528       -1.31925        0.04343
C         -0.68144        1.01799        0.07011
C          1.35175        2.51691        0.11359
Cl         3.90626        1.55765        0.12897
C         -2.34826        3.26499        0.08143
C         -0.96349        3.42937        0.09968
C         -2.90224        1.97964        0.05750
C         -2.07141        0.85911        0.05192
C         -0.12523        2.30914        0.09405
O          1.85022        3.62316        0.13432
H         -3.00012        4.14151        0.08584
H         -0.50736        4.42040        0.11831
H         -3.98696        1.85193        0.04319
H         -2.48054       -0.15239        0.03358
