5
DICHLOROMETHANE.gamout	Energy:    -959.2458680
Cl         0.54442       -0.04082        2.33655
C          0.70943        1.05858        0.93785
Cl         2.37048        1.66787        0.68845
H          0.41090        0.50961        0.03799
H          0.05515        1.92115        1.10648
