30
DICLOFENAC.gamout	Energy:   -1664.3612084
C         -1.56394       -4.25943        0.84921
C         -0.22146       -4.24077        0.47241
C         -2.42230       -3.26879        0.37483
C         -1.99424       -2.24061       -0.49890
C         -0.63326       -2.28456       -0.88949
C          0.24163       -3.25479       -0.39838
Cl        -0.01708       -1.14083       -2.05601
Cl        -4.10622       -3.31496        0.87915
H         -1.95363       -5.02603        1.51951
H          0.46315       -5.00442        0.84824
H          1.28126       -3.23788       -0.72768
N         -2.89672       -1.29442       -0.98797
H         -3.85614       -1.62462       -0.92491
C         -2.77612        0.10565       -0.79106
C         -1.94441        0.63876        0.20455
C         -1.86685        2.01560        0.40346
C         -2.63988        2.87782       -0.37444
C         -3.54565        0.97366       -1.59886
C         -3.47544        2.35176       -1.36014
C         -4.42238        0.38854       -2.69459
C         -4.59332        1.27741       -3.90925
H         -5.42841        0.15256       -2.30270
H         -3.96338       -0.54417       -3.04857
H         -4.08718        3.02454       -1.96341
H         -2.59499        3.95750       -0.21705
H         -1.21021        2.41149        1.18161
H         -1.36251       -0.03620        0.83421
O         -5.58082        2.18864       -3.74289
O         -3.95253        1.20344       -4.92575
H         -5.61337        2.70929       -4.56453
