24
DIETHYL_MALEATE.gamout	Energy:    -612.1811828
C          2.47364        1.50099        0.93193
C          2.15697        2.86119        1.45256
O          2.62602        3.08383        2.69118
O          1.50528        3.65879        0.81866
C          3.53649        0.72760        1.19953
C          2.37398        4.37834        3.26963
C          4.67904        0.99507        2.12631
C          1.04554        4.41673        4.00737
O          5.26318        2.18106        1.91629
O          5.05835        0.18203        2.93547
C          6.35633        2.51710        2.78597
C          6.94376        3.82977        2.31455
H          1.72844        1.14329        0.21656
H          3.58043       -0.26894        0.74828
H          2.40406        5.13666        2.47301
H          3.21589        4.54561        3.95741
H          0.20389        4.28014        3.31209
H          0.99924        3.63342        4.78042
H          0.92366        5.39435        4.50205
H          5.97842        2.58013        3.82029
H          7.09638        1.70056        2.76563
H          7.77839        4.12119        2.97113
H          7.32763        3.74612        1.28575
H          6.19171        4.63399        2.33561
