35
DIETHYLENE_GLYCOL_MONOHEXYL_ETHER.out Energy: -619.50185559
O -0.16632103 -0.09617971 0.00000000
O 0.28263650 -3.65287152 0.00000000
O -0.41864156 -7.17071659 0.00000000
C 0.50641913 3.61044536 0.00000000
C -0.26768995 2.29024436 0.00000000
C -0.39403681 4.84939466 0.00000000
C 0.37365341 6.17486764 0.00000000
C 0.63251603 1.06360739 0.00000000
C -0.53218274 7.40712430 0.00000000
C 0.55543373 -1.29983502 0.00000000
C -0.43984470 -2.44793320 0.00000000
C -0.51521296 -4.80936931 0.00000000
C 0.40020979 -6.02151894 0.00000000
H 1.17331114 3.64679671 -0.88163397
H 1.17331114 3.64679671 0.88163397
H -0.92842714 2.23632576 -0.88283622
H -0.92842714 2.23632576 0.88283622
H -1.06158662 4.81446537 0.88113540
H -1.06158662 4.81446537 -0.88113540
H 1.04069910 6.20766623 -0.88086237
H 1.04069910 6.20766623 0.88086237
H 1.29819808 1.07435809 -0.89017682
H 1.29819808 1.07435809 0.89017682
H 1.21128383 -1.38148381 0.89165725
H 1.21128383 -1.38148381 -0.89165725
H 0.05314361 8.34056440 0.00000000
H -1.18579656 7.42461184 0.88838697
H -1.18579656 7.42461184 -0.88838697
H -1.09491806 -2.36843769 0.89174646
H -1.09491806 -2.36843769 -0.89174646
H -1.17429060 -4.84670866 -0.89177331
H -1.17429060 -4.84670866 0.89177331
H 1.05623768 -5.96874680 -0.89207376
H 1.05623768 -5.96874680 0.89207376
H 0.14803975 -7.95088523 0.00000000
