16
DIETHYL_KETONE.gamout	Energy:    -271.4108646
C          0.68888        0.02919       -2.25906
C          0.45606        0.94145       -1.05983
C          0.66621        2.42131       -1.36141
C          0.44371        3.39364       -0.20862
O          0.99335        2.80533       -2.46307
C          0.68873        4.85246       -0.57805
H          0.52627       -1.02519       -1.98840
H          0.00948        0.28420       -3.08650
H          1.71534        0.13534       -2.64170
H          1.12105        0.67448       -0.21711
H         -0.56739        0.82344       -0.65716
H          1.09370        3.07676        0.62843
H         -0.58687        3.24118        0.16321
H          0.51683        5.51038        0.28704
H          0.02227        5.17039       -1.39420
H          1.72088        5.00177       -0.92964
