4
DIFLUOROAMINE.gamout	Energy:    -254.5898248
F          0.11397       29.95545        0.09926
N          1.20112       29.17021       -0.26088
H          1.19599       28.47859        0.50514
F          2.30495       29.93390        0.09529
