5
DIFLUOROMETHANE.gamout	Energy:    -238.6996637
F         -0.03656        0.01865        1.32454
C          0.75092        0.96828        0.76880
F          1.82010        0.37909        0.18535
H          1.10718        1.64928        1.56374
H          0.17112        1.50563       -0.00425
