5
DIIODOMETHANE.gamout	Energy:    -634.6380770
I         -1.84515        0.06359       -0.00000
C          0.00015       -1.06258        0.00001
I          1.84514        0.06357       -0.00000
H          0.00016       -1.67425        0.90500
H          0.00016       -1.67415       -0.90504
