21
DIISOPROPYL_SULFIDE.gamout	Energy:    -634.7462107
S          0.00109       -0.91198       -0.00131
C         -1.44437        0.24412       -0.00173
C          1.44147        0.24991        0.00337
C         -1.68347        0.86837       -1.37561
C         -2.66102       -0.53825        0.49344
C          1.68101        0.86571        1.38088
C          2.66020       -0.52423       -0.49934
H         -1.21287        1.03908        0.72719
H          1.20515        1.04900       -0.71941
H         -2.53439        1.57133       -1.33704
H         -0.80570        1.43048       -1.72952
H         -1.91006        0.09202       -2.12397
H         -3.54873        0.11526        0.52685
H         -2.49219       -0.94456        1.50182
H         -2.89211       -1.38145       -0.17927
H          2.52736        1.57423        1.34482
H          0.80066        1.41977        1.74099
H          1.91442        0.08560        2.12319
H          3.54556        0.13265       -0.52980
H          2.49077       -0.92410       -1.51012
H          2.89533       -1.37112        0.16729
