10
DIMETHYL_SULFOXIDE.gamout	Energy:    -552.7991703
C          0.83908        1.32596        0.60835
S          2.40140        2.08406        0.00317
C          3.53601        1.04449        1.01160
O          2.45688        3.47026        0.59778
H          0.80140        1.43546        1.70255
H          0.02432        1.90367        0.15006
H          0.77518        0.27019        0.30400
H          4.54626        1.43786        0.83134
H          3.27369        1.16979        2.07280
H          3.47797       -0.00966        0.70054
