10
DIMETHYLAMINE.gamout	Energy:    -134.9697740
C          0.90359        1.07848        1.48774
N          2.09444        1.76243        1.02768
C          3.33008        1.17849        1.50752
H          0.82120        1.16423        2.58565
H          0.00493        1.54819        1.05669
H          0.86726       -0.01010        1.24682
H          2.10122        1.80215        0.00963
H          4.19378        1.72108        1.09098
H          3.38706        1.26938        2.60664
H          3.45836        0.09710        1.26675
