10
DIMETHYL_DISULFIDE.gamout	Energy:    -875.7426953
S          1.50000        2.48144        0.32707
C          0.73832        2.20701        1.96895
S          2.46703        0.67429       -0.03995
C          4.09610        0.91903        0.75782
H          0.06433        1.33922        1.94453
H          1.49949        2.07393        2.75149
H          0.15558        3.11614        2.18777
H          4.67823        0.00785        0.54598
H          4.61227        1.78952        0.32936
H          3.99951        1.03448        1.84733
