34
DIMETHYLOCTYLAMINE.out Energy: -449.34444033
N -0.07771336 -4.03191539 -0.27626639
C -0.27662830 1.03620603 -0.19126611
C 0.46938053 -0.23962196 0.21094675
C 0.44126397 2.32781633 0.21080398
C -0.24931076 -1.52890472 -0.19774881
C -0.30513823 3.60383269 -0.18906209
C 0.50845687 -2.79252238 0.21794110
C 0.41024514 4.89654820 0.21592251
C -0.34394087 6.16559860 -0.18379373
C -1.35192287 -4.35946170 0.33297410
C 0.84742299 -5.14560447 -0.21013783
H -1.28671090 1.02544025 0.25917807
H -0.43846989 1.03343132 -1.28522375
H 1.48072872 -0.22529745 -0.23668895
H 0.62773844 -0.23812763 1.30560611
H 1.45103733 2.33937498 -0.24054291
H 0.60413147 2.32847865 1.30485801
H -1.26145070 -1.52675363 0.24299779
H -0.38982940 -1.55536347 -1.29260523
H -1.31590053 3.59147329 0.26047329
H -0.46650434 3.60463898 -1.28349259
H 0.62217115 -2.80776031 1.33022725
H 1.53280167 -2.72837353 -0.18756027
H 1.41929123 4.90912472 -0.23533388
H 0.57294525 4.89338043 1.30931014
H -1.34420348 6.20019744 0.28006497
H -0.48723648 6.22017926 -1.27617566
H 0.19716846 7.07407714 0.12584260
H -1.76875300 -5.26642788 -0.13350849
H -2.08085343 -3.54962404 0.18308071
H -1.27767457 -4.54919415 1.43086383
H 1.77274642 -4.90705501 -0.75855375
H 0.39997103 -6.03786862 -0.67740865
H 1.13522289 -5.42372877 0.83197390
