9
DIMETHYL_ETHER.gamout	Energy:    -154.8142382
C          2.82951        1.00599        1.05665
O          1.80503        1.71216        1.69883
C          0.68760        1.93338        0.88472
H          3.65689        0.88187        1.77158
H          2.49969       -0.00117        0.72440
H          3.21477        1.54536        0.16551
H         -0.05707        2.48945        1.47413
H          0.93722        2.53110       -0.01763
H          0.22451        0.98405        0.54154
