20
DIMETHYL_SULFOXIDE-DIMETHYL_SULFOXIDE.out Energy: -1105.93574352
C 0.90832646 1.76316808 -1.36629833
S -0.22344929 2.22179819 0.00000000
C 0.90832646 1.76316808 1.36629833
O -1.34486712 1.18670281 0.00000000
H 1.22239149 0.71972342 -1.20742640
H 1.76508437 2.45391949 -1.37583316
H 0.32809890 1.87311727 -2.29308367
H 1.76508437 2.45391949 1.37583316
H 1.22239149 0.71972342 1.20742640
H 0.32809890 1.87311727 2.29308367
H -1.76508437 -2.45391949 -1.37583316
C -0.90832646 -1.76316808 -1.36629833
H -0.32809890 -1.87311727 -2.29308367
H -1.22239149 -0.71972342 -1.20742640
O 1.34486712 -1.18670281 0.00000000
S 0.22344929 -2.22179819 0.00000000
C -0.90832646 -1.76316808 1.36629833
H -1.22239149 -0.71972342 1.20742640
H -0.32809890 -1.87311727 2.29308367
H -1.76508437 -2.45391949 1.37583316
