17
DIMETHYLETHANOLAMINE.out Energy: -288.78275534
O 0.26779146 -2.66420102 0.14136518
N -0.00862734 0.98883946 -0.23837482
C 0.41860920 -0.30475878 0.27149198
C -0.29370338 -1.48072806 -0.39010860
C 0.98878254 2.02526564 -0.05615754
C -1.30932415 1.40502818 0.25128049
H 0.30040274 -0.39166806 1.37654214
H 1.49409793 -0.42725829 0.06684520
H -0.15266234 -1.40214744 -1.48663439
H -1.38437328 -1.43251605 -0.19774506
H 1.94166818 1.72497381 -0.51954345
H 1.19281620 2.26289569 1.01465208
H 0.65726935 2.95699295 -0.54278105
H -1.62290667 2.33396772 -0.25163451
H -1.32264941 1.59479438 1.35084826
H -2.07311658 0.64274474 0.03733419
H -0.17453392 -3.42101335 -0.26078623
