24
DIPHENYLACETYLENE.gamout	Energy:    -538.7331592
C          5.28046        2.19929        0.41431
C          6.49995        2.18070        0.41511
C          7.92655        2.15742        0.41614
C          3.85399        2.22197        0.41399
C          8.66610        3.35138        0.54840
C          8.62390        0.93848        0.28485
C          3.15580        3.44029        0.54613
C          3.11552        1.02758        0.28157
C         10.05861        3.32207        0.54898
C         10.01640        0.91893        0.28644
C          1.76330        3.45884        0.54520
C          1.72311        1.05588        0.28173
C         10.73950        2.10810        0.41830
C          1.04119        2.26912        0.41323
H          8.13358        4.29860        0.65063
H          8.05847        0.01061        0.18183
H          3.72061        4.36851        0.64924
H          3.64867        0.08082        0.17876
H         10.61879        4.25447        0.65237
H         10.54332       -0.03269        0.18384
H          1.23565        4.40998        0.64840
H          1.16363        0.12310        0.17816
H         11.83191        2.08889        0.41911
H         -0.05123        2.28736        0.41282
