22
DIPROPYL_KETONE.gamout	Energy:    -349.9228043
C          1.81130        1.60649        1.64956
C          3.26693        1.59407        2.10939
C          4.21971        2.53067        1.37708
O          3.64612        0.86627        3.00191
C          0.83627        0.93001        2.61426
C          5.69472        2.32370        1.71456
C          0.60614        1.71873        3.90396
C          6.61915        3.30710        0.99684
H          1.79801        1.09586        0.66769
H          1.51111        2.64830        1.43385
H          4.03773        2.43177        0.29012
H          3.90269        3.56359        1.62134
H          1.22673       -0.07080        2.86024
H         -0.12425        0.77929        2.09401
H          5.82282        2.40533        2.80635
H          5.97661        1.28736        1.46241
H         -0.11341        1.20475        4.56042
H          1.54439        1.83591        4.46820
H          0.20397        2.72541        3.69638
H          7.67303        3.12631        1.26027
H          6.38655        4.35250        1.26271
H          6.53343        3.22101       -0.10012
