13
DMP-1.gamout	Energy:    -721.5631707
C         -3.19692       -1.08735        1.79264
O         -2.38635        0.02995        2.03077
H         -3.91079       -0.90139        0.96890
H         -2.59785       -1.98040        1.51898
H         -3.75971       -1.31903        2.71692
P         -1.72590        0.81540        0.70754
O         -0.53224       -0.36542        0.41521
C          0.25938       -0.17256       -0.71794
H         -0.34852       -0.08376       -1.64170
H          0.93883       -1.03885       -0.83271
H          0.88233        0.74396       -0.64143
O         -2.70982        0.76825       -0.43820
O         -1.06133        2.06570        1.20393
