37
DODECANAL.out Energy: -546.57309648
O 1.16562653 6.76649726 0.00000000
C 0.37472877 -1.02169202 0.00000000
C -0.53058362 0.21426505 0.00000000
C -0.38792063 -2.34968091 0.00000000
C 0.23387289 1.54139626 0.00000000
C 0.51367200 -3.58807105 0.00000000
C -0.66585845 2.78103395 0.00000000
C -0.25737818 -4.91100415 0.00000000
C 0.11395538 4.09868233 0.00000000
C 0.63308064 -6.15722550 0.00000000
C -0.77757760 5.33718248 0.00000000
C -0.15544692 -7.46762388 0.00000000
C -0.03416730 6.65145919 0.00000000
H 1.04225335 -0.98419665 0.88104020
H 1.04225335 -0.98419665 -0.88104020
H -1.19810370 0.17697281 0.88127339
H -1.19810370 0.17697281 -0.88127339
H -1.05564972 -2.38647023 -0.88103427
H -1.05564972 -2.38647023 0.88103427
H 0.90142347 1.57824122 0.88077163
H 0.90142347 1.57824122 -0.88077163
H 1.18136862 -3.55388172 -0.88124495
H 1.18136862 -3.55388172 0.88124495
H -1.33363889 2.74799431 -0.88137880
H -1.33363889 2.74799431 0.88137880
H -0.92575120 -4.94264197 -0.88094768
H -0.92575120 -4.94264197 0.88094768
H 0.78262059 4.13929833 -0.87690954
H 0.78262059 4.13929833 0.87690954
H 1.30042783 -6.12737281 0.88082421
H 1.30042783 -6.12737281 -0.88082421
H -1.45808522 5.35141384 -0.87437358
H -1.45808522 5.35141384 0.87437358
H -0.80512869 -7.54344086 -0.88821572
H -0.80512869 -7.54344086 0.88821572
H 0.51136733 -8.34474368 0.00000000
H -0.69546600 7.56089011 0.00000000
