28
ELLAGIC_ACID.gamout	Energy:   -1137.5117647
O         -0.97502        2.29850        0.01539
O          0.99414       -2.31142       -0.00968
O         -3.69676        1.99126        0.01651
O          3.72717       -2.01100        0.00284
O         -4.82059       -0.40590       -0.00094
O          4.83495        0.51472       -0.03963
O          0.75191        3.69380        0.03338
O         -0.73394       -3.70737       -0.01610
C         -0.70037       -0.09441       -0.00634
C          0.71701        0.07974       -0.00880
C         -1.25788       -1.38209       -0.01238
C          1.27932        1.36682        0.00857
C         -1.51040        1.04619        0.00482
C          1.52823       -1.06071       -0.01228
C         -2.90180        0.91140        0.00624
C          2.91877       -0.91580       -0.00116
C         -2.65200       -1.52874       -0.01129
C          2.66882        1.51884       -0.00557
C          0.38920        2.54942        0.02098
C         -0.37318       -2.56109       -0.01413
C         -3.45634       -0.39473       -0.00289
C          3.47857        0.38382       -0.02339
H         -3.07907       -2.53361       -0.01593
H          3.11405        2.51302       -0.01460
H         -4.61667        1.68091        0.01572
H          4.45284       -1.86027        0.62836
H         -5.15531       -1.31181       -0.00779
H          5.21139       -0.22836       -0.53653
