10
EPICHLOROHYDRIN.out Energy: -652.42655211
Cl 0.15095915 1.91343846 -0.07567232
O 0.96591837 -1.39815074 0.24836942
C -0.09711161 -0.78900881 -0.46597958
C -0.22988093 -2.14639778 0.09060158
C -0.77448739 0.38149483 0.18749980
H 0.07662566 -0.67830549 -1.54612627
H -0.81831674 -2.30637673 1.00477934
H -0.17293664 -3.01273151 -0.58213240
H -0.85055500 0.22930388 1.27249461
H -1.77812695 0.53871798 -0.23321833
