65
ERUCATE-1.gamout	Energy:   -1012.1204522
O          9.47703       -7.66388        0.20946
O          7.75359       -7.73178        1.67994
C          0.90632       -2.61482       -1.66203
C          1.68275       -3.54223       -0.71858
C         -0.51353       -2.28152       -1.18736
C          3.09899       -3.88266       -1.19990
C         -1.29508       -1.36315       -2.13686
C          3.88321       -4.81584       -0.26677
C         -2.71993       -1.04399       -1.66963
C          5.29979       -5.15461       -0.75668
C         -3.43909        4.77711        1.55058
C         -3.66979        4.36313        0.08903
C         -3.49708       -0.12275       -2.63094
C         -2.71635        6.12194        1.72030
C         -4.41211        3.03034       -0.07850
C          6.09603       -6.09082        0.16387
C         -4.64452        2.63146       -1.54934
C         -2.49564        6.53754        3.18140
C         -4.89772        0.16679       -2.16470
C         -5.38367        1.32976       -1.70448
C          7.50638       -6.42286       -0.32310
C         -1.78005        7.88307        3.35169
C         -1.56833        8.28586        4.81248
C          8.33646       -7.38030        0.62891
H          1.47355       -1.67435       -1.79867
H          0.85266       -3.07842       -2.66550
H          1.73974       -3.07652        0.28379
H          1.11072       -4.47924       -0.57888
H         -0.46133       -1.81227       -0.18657
H         -1.07865       -3.22223       -1.04608
H          3.66741       -2.94282       -1.33854
H          3.03608       -4.34164       -2.20538
H         -0.73788       -0.41648       -2.27087
H         -1.33856       -1.82822       -3.13997
H          3.94579       -4.35603        0.73820
H          3.31215       -5.75401       -0.12833
H         -2.68432       -0.56738       -0.67302
H         -3.28200       -1.98642       -1.53132
H          5.86209       -4.21028       -0.89802
H          5.22766       -5.60607       -1.76629
H         -2.86089        3.98680        2.06575
H         -4.41373        4.82240        2.07298
H         -2.69535        4.30077       -0.43154
H         -4.23536        5.16048       -0.43016
H         -1.73916        6.07626        1.20285
H         -3.29259        6.91154        1.20099
H         -2.93119        0.81280       -2.77037
H         -3.54003       -0.60688       -3.62498
H         -3.84406        2.22454        0.42116
H         -5.38481        3.08243        0.44570
H          6.17270       -5.65549        1.17640
H          5.54567       -7.03684        0.31344
H         -5.22140        3.43574       -2.04555
H         -3.67431        2.58657       -2.07038
H         -1.91595        5.75095        3.70098
H         -3.47239        6.58035        3.70075
H         -5.58089       -0.69243       -2.17951
H         -6.43086        1.34256       -1.37515
H          8.09911       -5.49718       -0.46088
H          7.47348       -6.89682       -1.32359
H         -0.80245        7.84172        2.83648
H         -2.35808        8.67102        2.83360
H         -1.05206        9.25570        4.88985
H         -0.95832        7.54132        5.35197
H         -2.52787        8.37701        5.35009
