42
ESTRONE.gamout	Energy:    -848.4785933
O         -4.94834       -1.23464       -0.30563
O          5.89086       -0.20590        0.24540
C         -2.01873        0.70684       -0.24978
C         -2.65953       -0.59012        0.29408
C         -0.52814        0.81792        0.08797
C          0.21283       -0.41230       -0.50155
C         -1.95890       -1.79566       -0.32745
C         -3.02220        1.81288        0.13032
C         -0.43985       -1.74648       -0.07444
C          0.14192        2.09724       -0.42049
C         -4.12955       -0.37615       -0.08579
C         -4.38413        1.14144       -0.14315
C         -2.65980       -0.69067        1.83633
C          1.72376       -0.34025       -0.25162
C          1.58378        2.19140        0.08163
C          2.36422        0.89563       -0.02806
C          2.53052       -1.49201       -0.29530
C          3.75753        0.94068        0.13830
C          3.91073       -1.44689       -0.12859
C          4.54005       -0.21561        0.09037
H         -2.07879        0.61837       -1.35390
H         -0.40957        0.79588        1.18824
H          0.07020       -0.34087       -1.60016
H         -2.15136       -1.79740       -1.41415
H         -2.37743       -2.73555        0.06247
H         -2.88474        2.73315       -0.45620
H         -2.92172        2.09195        1.19289
H         -0.22343       -1.93651        0.99096
H          0.02033       -2.57901       -0.62650
H         -0.41202        2.98919       -0.09019
H          0.11869        2.10552       -1.52644
H         -4.76337        1.36962       -1.15437
H         -5.18586        1.42371        0.55738
H         -1.64310       -0.74902        2.24789
H         -3.16130        0.16348        2.31439
H         -3.20084       -1.60045        2.13567
H          1.57534        2.50031        1.14442
H          2.11917        2.99173       -0.45396
H          2.07150       -2.46533       -0.47257
H          4.24087        1.90846        0.31223
H          4.51699       -2.35332       -0.16758
H          6.19277        0.70058        0.38917
