14
ETHYL_THIOACETATE.gamout	Energy:    -630.1537627
S          2.15302       -1.02182       -0.00238
O         -0.34616       -0.39969       -0.00266
C         -1.48396        0.47134       -0.00168
C         -2.72530       -0.39743       -0.00405
C          0.91522        0.05237       -0.00117
C          1.12292        1.54684        0.00154
H         -1.46045        1.12057        0.89108
H         -1.45943        1.12389       -0.89201
H         -3.62764        0.23417       -0.00337
H         -2.74965       -1.04002       -0.89733
H         -2.75069       -1.04341        0.88675
H          2.19604        1.76299        0.00248
H          0.66287        2.01521       -0.88575
H          0.66194        2.01216        0.88994
