6
ETHYLENE.gamout	Energy:     -78.4734056
C          0.66644       -0.00000       -0.00020
C         -0.66644        0.00000        0.00008
H          1.24202        0.93150        0.00018
H          1.24203       -0.93149        0.00142
H         -1.24203       -0.93149       -0.00063
H         -1.24203        0.93149        0.00071
