16
ETHYLSUCCINONITRILE.out Energy: -342.67330076
N 2.34891690 -0.29944838 -0.30845726
N -0.12636277 3.27811737 0.47139768
C -0.23267868 -0.25641729 0.19066799
C -0.89563955 -1.57784005 -0.26283014
C -0.91240688 0.96565348 -0.48203593
C -0.33342735 -2.82217000 0.42171261
C 1.21451332 -0.26670565 -0.07579237
C -0.46831993 2.25833479 0.04210583
H -0.35525125 -0.15861215 1.28367092
H -0.79268651 -1.66638036 -1.35789704
H -1.97578543 -1.49006052 -0.05608983
H -0.73759038 0.94256304 -1.57017524
H -2.00131449 0.88883358 -0.32976998
H -0.85095923 -3.72628878 0.06663359
H -0.46106825 -2.77190158 1.51542047
H 0.74048236 -2.94615141 0.21278741
