21
ETHYL_TERT-BUTYL_SULFIDE.gamout	Energy:    -634.7443061
S         39.96226       19.83989       -0.02505
C         38.09943       19.97357        0.00492
C         40.30393       18.03669       -0.00596
C         37.83962       21.48591       -0.01013
C         37.48482       19.32241       -1.23790
C         37.52677       19.35520        1.28383
C         41.81544       17.81732       -0.03516
H         39.87026       17.58593        0.90115
H         39.83207       17.56018       -0.88029
H         36.75402       21.68157        0.00684
H         38.28810       21.97760        0.86722
H         38.25589       21.95380       -0.91585
H         36.39107       19.47510       -1.24736
H         37.66203       18.23595       -1.26098
H         37.90127       19.75717       -2.15892
H         37.97220       19.81466        2.17897
H         36.43374       19.50749        1.32433
H         37.70631       18.26998        1.32968
H         42.04622       16.73964       -0.02363
H         42.26439       18.25225       -0.94236
H         42.30287       18.27916        0.83831
