14
ETHYLENE_GLYCOL_DINITRATE.gamout	Energy:    -638.4095577
C         69.90635       29.80687        0.47545
C         68.76133       29.45500       -0.47600
O         68.77050       28.06417       -0.80234
O         69.89749       31.19756        0.80230
N         68.10563       27.21740        0.13394
N         70.56333       32.04350       -0.13383
O         68.12753       26.07120       -0.19501
O         67.62038       27.74021        1.10480
O         70.54307       33.18969        0.19531
O         71.04762       31.51980       -1.10465
H         69.77113       29.31407        1.44795
H         70.87517       29.51546        0.04577
H         68.89668       29.94747       -1.44865
H         67.79250       29.74656       -0.04655
