32
ETHYL_OCTANOATE.gamout	Energy:    -542.8411907
C          5.30793        2.98032        2.41634
C          4.37751        1.93778        3.00412
O          3.11703        2.10489        2.56303
O          4.69524        1.07696        3.78927
C          6.79249        2.65160        2.58053
C          2.12553        1.20604        3.08262
C          7.27494        1.48469        1.71136
C          0.79597        1.57012        2.45697
C          8.75394        1.11202        1.89925
C          9.76600        2.16743        1.43628
C         11.22556        1.71891        1.57001
C         12.23983        2.76701        1.10783
H          5.02861        3.13500        1.36090
H          5.06674        3.93047        2.92569
H          6.98563        2.41904        3.64138
H          7.36810        3.56127        2.34548
H          2.42336        0.17020        2.85105
H          2.10077        1.29320        4.18163
H          7.08961        1.72261        0.64640
H          6.66371        0.59695        1.94274
H          0.83425        1.47679        1.36034
H          0.00633        0.90072        2.83228
H          0.51621        2.60630        2.70305
H          8.93325        0.87680        2.96526
H          8.94795        0.17320        1.35037
H          9.56044        2.42929        0.38053
H          9.62697        3.10196        2.01030
H         11.42804        1.45408        2.62430
H         11.37445        0.78647        0.99458
H         12.14905        3.70121        1.68806
H         12.09802        3.02652        0.04471
H         13.27335        2.40458        1.22463
