44
ETHYL_LAURATE.gamout	Energy:    -699.8677850
C         -1.12719        0.50795        0.02915
C          0.14872        1.34237       -0.10077
H         11.76469       -0.27951       -0.69056
O         13.09029        2.50550        0.01284
H         16.33472       -0.61782        0.79516
H         -1.16733       -0.28665       -0.73551
H         -1.18787        0.01702        1.01556
H         -2.02981        1.12861       -0.08901
C          1.43693        0.52549        0.05356
H          0.15710        1.85071       -1.08284
H          0.13859        2.15159        0.65287
C          2.72183        1.35109       -0.08633
H          1.43182        0.02250        1.03942
H          1.44136       -0.28914       -0.69559
C          4.01249        0.53631        0.07413
H          2.72762        1.84944       -1.07433
H          2.71167        2.16895        0.65891
C          5.29888        1.35937       -0.07954
H          4.01177        0.04494        1.06564
H          4.01611       -0.28661       -0.66558
C          6.58812        0.54366        0.09081
H          5.30422        1.84361       -1.07445
H          5.29155        2.18725        0.65442
C          7.87715        1.36174       -0.07009
H          6.58437        0.06220        1.08716
H          6.59097       -0.28646       -0.64082
C          9.16325        0.53996        0.09737
H          7.88075        1.84303       -1.06625
H          7.87793        2.19121        0.66176
C         10.45351        1.35564       -0.05196
H          9.15397        0.05060        1.08998
H          9.16468       -0.28527       -0.63997
C         11.71658        0.50619        0.08335
H         10.46183        1.86506       -1.03168
H         10.48300        2.16384        0.69838
C         13.00392        1.30118        0.01785
H         11.72413       -0.03972        1.04493
O         14.07225        0.48373       -0.02155
C         15.36150        1.11190       -0.07182
H         16.28469       -0.62299       -0.98773
H         17.41554        0.45981       -0.13082
C         16.40695        0.01855       -0.10076
H         15.41057        1.75834       -0.96376
H         15.47476        1.77220        0.80412
