23
ETHYL_2-METHYLBUTYRATE.out Energy: -425.33774097
O -0.04224970 -1.11374952 0.36156513
O -0.72910317 -0.02765753 -1.48321285
C -0.36113388 1.24205707 0.54603590
C 0.64918698 2.24790763 -0.03942388
C -1.77150981 1.84373737 0.63932225
C -0.40570234 -0.01034420 -0.31925727
C 2.09479559 1.74990305 -0.06085613
C -0.05204543 -2.35592735 -0.36307736
C 0.39483729 -3.45263106 0.58119399
H -0.02597515 0.93830275 1.55066402
H 0.32551151 2.50506259 -1.06245012
H 0.58538929 3.17697493 0.55300275
H -2.48240311 1.13679925 1.09565710
H -1.76103442 2.75754328 1.25389524
H -2.14592327 2.10251334 -0.36306092
H 2.44506073 1.48138120 0.94970582
H 2.77355896 2.52271510 -0.45489463
H 2.20894935 0.85903028 -0.70001797
H -1.06740502 -2.53398370 -0.75351183
H 0.61349467 -2.26505938 -1.23700053
H 0.40061346 -4.42176251 0.05835186
H 1.41050346 -3.25803485 0.95918896
H -0.28375450 -3.53008893 1.44474641
