32
ETHYLENE_GLYCOL_DI-N-BUTYRATE.out Energy: -692.33102356
O 1.40836855 0.22858776 -0.71762248
O -1.40836855 -0.22858776 -0.71762248
O 3.18183001 -1.04548792 -1.25240560
O -3.18183001 1.04548792 -1.25240560
C 3.27365707 0.35661884 0.72650226
C -3.27365707 -0.35661884 0.72650226
C 4.72281651 -0.06482598 0.96052466
C -4.72281651 0.06482598 0.96052466
C 0.69406787 -0.29440028 -1.84105293
C -0.69406787 0.29440028 -1.84105293
C 2.65712574 -0.24410100 -0.51900802
C -2.65712574 0.24410100 -0.51900802
C 5.30844333 0.51852137 2.24625649
C -5.30844333 -0.51852137 2.24625649
H 2.63107699 0.06890566 1.57831115
H 3.17579914 1.45404516 0.65439809
H -2.63107699 -0.06890566 1.57831115
H -3.17579914 -1.45404516 0.65439809
H 4.77582751 -1.16572578 0.98172825
H 5.33118496 0.24142496 0.09301109
H -4.77582751 1.16572578 0.98172825
H -5.33118496 -0.24142496 0.09301109
H 1.21651394 -0.02739489 -2.77466969
H 0.66104303 -1.39382084 -1.78361294
H -1.21651394 0.02739489 -2.77466969
H -0.66104303 1.39382084 -1.78361294
H 6.35424778 0.20386651 2.38764738
H 5.29177365 1.62140024 2.23452547
H 4.74030900 0.19112976 3.13337681
H -6.35424778 -0.20386651 2.38764738
H -5.29177365 -1.62140024 2.23452547
H -4.74030900 -0.19112976 3.13337681
