17
ETHYL_PROPIONATE.gamout	Energy:    -346.5611678
O          4.50456        1.11997        1.23869
C          3.33356        1.76960        1.10000
C          2.16468        0.80973        1.18117
O          3.25027        2.96255        0.93469
C          5.69647        1.91796        1.17341
C          0.81664        1.49119        0.98332
C          6.88390        0.99291        1.33087
H          2.22592        0.30036        2.15898
H          2.34042        0.01637        0.43422
H          5.65799        2.68379        1.96599
H          5.71405        2.45766        0.21198
H          0.64808        2.26462        1.74771
H          0.76279        1.98516        0.00136
H         -0.00122        0.75782        1.04689
H          6.85035        0.46844        2.29875
H          6.90388        0.23567        0.53124
H          7.82075        1.56990        1.28310
