29
ETHYL_OENANTHATE.gamout	Energy:    -503.5849369
C          5.48928        2.59964        1.59143
C          4.37466        1.69902        1.09827
O          3.18050        2.10967        1.56495
O          4.51152        0.73654        0.38273
C          6.87903        2.16507        1.13234
C          2.03432        1.34108        1.17100
C          7.99388        3.08247        1.64645
C          0.81554        1.96340        1.81812
C          9.40742        2.71295        1.17068
C          9.93943        1.37720        1.70061
C         11.37403        1.07675        1.26271
H          5.41840        2.63538        2.69305
H          5.25113        3.62608        1.25849
H          7.04896        1.12721        1.46254
H          6.89947        2.13030        0.02947
H          2.17970        0.29361        1.48292
H          1.96298        1.33891        0.07064
H          7.77493        4.11990        1.33459
H          7.97836        3.09404        2.75317
H         -0.08942        1.40113        1.53983
H          0.90429        1.95415        2.91572
H          0.68647        3.00789        1.49391
H         10.09969        3.51728        1.47770
H          9.43028        2.70262        0.06439
H          9.28251        0.55412        1.36908
H          9.88563        1.38116        2.80525
H         11.45801        1.02977        0.16355
H         12.07603        1.85296        1.61260
H         11.72128        0.11082        1.66219
