20
ETHYLENE_GLYCOL_DIACETATE.gamout	Energy:    -534.8970289
O          1.96872        2.63163        0.30022
C          2.08049        1.73309        1.09602
O          3.27382        1.27977        1.54490
C          0.94625        0.96276        1.72062
C          4.45003        1.88883        1.00909
C          4.78554        3.16623        1.77734
O          5.96175        3.77507        1.24156
C          7.15456        3.32089        1.69069
O          7.26588        2.42232        2.48650
C          8.28862        4.09044        1.06589
H          1.03249       -0.10405        1.46305
H          1.00022        1.03706        2.81748
H         -0.00928        1.36131        1.36099
H          5.25277        1.15090        1.13698
H          4.30498        2.11865       -0.05661
H          3.98294        3.90432        1.64961
H          4.93071        2.93632        2.84299
H          8.20297        5.15732        1.32332
H          8.23434        4.01600       -0.03094
H          9.24411        3.69158        1.42525
