21
ETHYLCYCLOPENTANE.gamout	Energy:    -274.7825754
C          2.34476        2.40359       -0.25504
C          3.77998        1.84542       -0.27752
C          1.47469        1.27096        0.32906
C          3.83599        1.04542        1.03605
C          2.44196        0.39529        1.17586
H          2.32019        3.28667        0.40926
H          2.00150        2.73972       -1.24632
H          3.85890        1.13081       -1.12134
C          4.86475        2.91400       -0.45165
H          0.63740        1.66675        0.92456
H          1.02287        0.67375       -0.48030
H          4.64871        0.30337        1.05917
H          4.01742        1.74648        1.87149
H          2.13155        0.33123        2.23043
H          2.45633       -0.63941        0.79565
H          4.78223        3.64096        0.37855
H          4.64804        3.48491       -1.37213
C          6.29774        2.37738       -0.52037
H          6.41392        1.64609       -1.33864
H          6.59367        1.87544        0.41536
H          7.01817        3.19154       -0.69998
