18
ETHYL_N-PROPYL_SULFIDE.gamout	Energy:    -595.4880924
S          2.07022        2.59437        1.85599
C          1.99067        1.18804        3.03294
C          0.53357        0.82649        3.30864
C          3.87409        2.91242        1.79263
C          4.69734        1.88592        1.01179
C          6.18512        2.24221        0.96044
H          2.50338        1.48197        3.96490
H          2.52653        0.32138        2.61266
H          0.47169       -0.01689        4.01586
H          0.01588        0.52851        2.38256
H         -0.01410        1.67731        3.74445
H          4.24717        3.01826        2.82697
H          3.96114        3.90719        1.32300
H          4.28831        1.80936       -0.01027
H          4.57458        0.88887        1.46958
H          6.62231        2.29605        1.97219
H          6.34930        3.22026        0.47685
H          6.75766        1.49139        0.39229
