22
ETHYL_SALICYLATE.out Energy: -574.24452308
O 0.31547888 -1.80690842 0.00000000
O -2.16065654 1.59626056 0.00000000
O -1.81052770 -1.08460671 0.00000000
C -0.01504411 0.52739051 0.00000000
C -0.81716262 1.69779470 0.00000000
C 1.38511539 0.67608891 0.00000000
C -0.62930067 -0.83424786 0.00000000
C -0.16187369 -3.15858690 0.00000000
C -0.19376463 2.95866216 0.00000000
C 1.99434452 1.92807400 0.00000000
C 1.19361260 3.07513890 0.00000000
C 1.03789515 -4.08386828 0.00000000
H 1.99231301 -0.22876849 0.00000000
H -0.80148951 -3.31496689 0.88433905
H -0.80148951 -3.31496689 -0.88433905
H -0.82138591 3.85610642 0.00000000
H 3.08314322 2.01024973 0.00000000
H 1.64936030 4.06859733 0.00000000
H 0.70271427 -5.13291451 0.00000000
H 1.66288802 -3.92259888 -0.89220877
H 1.66288802 -3.92259888 0.89220877
H -2.54164491 2.48464632 0.00000000
