32
ETHYL_ADIPATE.gamout	Energy:    -691.9262671
C          1.00792        0.68337        1.05842
C          1.02656        2.17282        1.32808
O          1.90525        2.41357        2.43876
C          7.44832        2.78530        1.79053
C          6.50100        2.51523        2.94182
O          7.18607        3.41991        0.79766
O          8.64394        2.20641        2.00407
C          5.20940        3.32943        2.87917
C          4.23279        2.97211        4.00308
C          2.95686        3.82413        4.03181
C          2.04568        3.69661        2.82666
O          1.47575        4.61484        2.28992
C          9.62761        2.36250        0.97020
C         10.90702        1.70976        1.44679
H          2.01406        0.31183        0.80846
H          0.64287        0.12569        1.93518
H          0.34102        0.46338        0.20990
H          1.38510        2.74670        0.45801
H          0.02516        2.55986        1.57710
H          6.28605        1.43065        2.93305
H          7.05100        2.69187        3.88179
H          5.45330        4.40508        2.92393
H          4.74030        3.17135        1.89438
H          4.73775        3.08855        4.97769
H          3.95082        1.90857        3.92631
H          2.35460        3.53122        4.90968
H          3.18150        4.89544        4.14385
H          9.24947        1.90013        0.04317
H          9.76083        3.43635        0.76141
H         11.27212        2.18364        2.37135
H         10.75247        0.63827        1.64835
H         11.68941        1.80687        0.67810
