14
ETHYL_ACETATE.gamout	Energy:    -307.3033097
O          1.81315        2.20870        1.03193
C          1.56878        3.57610        1.39629
C          2.22287        3.82646        2.73854
C          1.30226        1.79915       -0.14429
C          1.62944        0.35039       -0.42069
O          0.66448        2.51529       -0.87716
H          1.97248        4.23428        0.60885
H          0.48023        3.75074        1.42614
H          2.05609        4.86957        3.05044
H          1.80415        3.16429        3.51272
H          3.30929        3.65182        2.68857
H          2.18421        0.28419       -1.36933
H          2.22111       -0.09568        0.38836
H          0.69187       -0.21125       -0.55183
