12
ETSO4-1.gamout	Energy:    -777.6559894
S          0.37672        5.42742        2.17581
O          1.54216        5.21384        3.05032
O         -0.02840        4.26850        1.34421
C         -2.15765        5.78790        2.82230
O          0.32329        6.73110        1.46970
O         -0.88264        5.54526        3.35886
C         -3.16905        5.77667        3.95948
H         -3.16616        4.79859        4.46891
H         -4.18886        5.97530        3.58533
H         -2.91574        6.54536        4.70868
H         -2.41490        5.01330        2.07144
H         -2.17777        6.76365        2.29555
