24
EUGENOL.out Energy: -538.30615840
O 1.51306968 -2.00172355 -0.01177995
O -0.79072495 -3.23928059 -0.28372814
C -0.78311019 0.90828617 0.28711271
C -0.73492431 2.41276795 0.50120898
C 0.41366882 0.16517655 0.23492215
C 0.40769344 -1.21828895 0.04763008
C -1.99333695 0.23094581 0.14129124
C -0.83193475 -1.89451574 -0.09876075
C -2.01329114 -1.15884923 -0.04862092
C 0.06808061 3.14523426 -0.54305419
C 2.78065531 -1.40469665 0.12008800
C 1.11592386 3.93793144 -0.29883397
H -1.77034412 2.79643958 0.49466864
H -0.32364117 2.64264165 1.50038484
H 1.36198897 0.69414821 0.33663013
H -2.93737647 0.78097146 0.17722576
H -2.96860841 -1.68215784 -0.16181359
H -0.25450503 2.98920937 -1.58057078
H 2.90248368 -0.90478569 1.09873765
H 2.97456408 -0.66528256 -0.67856706
H 3.51818188 -2.21498151 0.04140360
H -1.69410337 -3.56907406 -0.37409562
H 1.65238387 4.44347806 -1.10678545
H 1.47338404 4.11745607 0.72118023
