30
FLUFENAMIC_ACID.gamout	Energy:   -1042.9843211
F          3.45081       -2.16278       -0.27529
F          4.99534       -0.75281        0.28541
F          3.49437       -1.35047        1.72708
O         -4.84725        1.31737        0.97064
O         -2.93927        2.37826        0.52102
N         -0.83982        0.91059       -0.24944
C          0.55472        0.96829       -0.33348
C         -1.70395       -0.16204       -0.28849
C          2.80338        0.09728       -0.01285
C          1.41591       -0.06426        0.07552
C         -3.07193        0.01581        0.09649
C          1.12842        2.16994       -0.80006
C          3.36190        1.28511       -0.48477
C         -1.31382       -1.44548       -0.73642
C          2.50907        2.32428       -0.86719
C         -3.96017       -1.07615        0.04846
C          3.69087       -1.03919        0.43071
C         -2.21639       -2.50005       -0.77806
C         -3.54858       -2.33025       -0.37771
C         -3.57334        1.33146        0.53387
H         -1.31833        1.79730       -0.06864
H          1.01261       -0.98305        0.49788
H          0.46960        2.98277       -1.11448
H          4.44389        1.39413       -0.54692
H         -0.29458       -1.60579       -1.08230
H          2.92811        3.26455       -1.23191
H         -4.99376       -0.90841        0.35067
H         -1.87407       -3.47392       -1.13770
H         -4.25165       -3.16387       -0.41069
H         -5.05883        2.23477        1.21313
