26
FLUORANTHENE.gamout	Energy:    -614.9213277
C          3.94805        0.75098        1.98300
C          5.22114        0.96421        1.38153
C          6.38852        1.05110        2.12384
C          3.87302        0.62578        3.35762
C          2.79238        0.40434        4.33841
C          5.07465        0.71655        4.10621
C          6.34462        0.92636        3.54245
C          4.83241        0.56835        5.49560
C          7.43476        0.98879        4.45741
C          7.21079        0.84532        5.81751
C          5.91070        0.63340        6.35791
C          3.37721        0.36986        5.63980
C          1.41772        0.24027        4.18419
C          2.57668        0.17242        6.76283
C          1.19561        0.00840        6.59637
C          0.62252        0.04181        5.32060
H          3.05841        0.69012        1.35155
H          5.27493        1.06240        0.29434
H          7.34475        1.21573        1.62029
H          8.44994        1.15001        4.08618
H          8.05995        0.89601        6.50364
H          5.78954        0.52649        7.43855
H          0.96115        0.26496        3.19213
H          3.01576        0.14467        7.76277
H          0.56016       -0.14718        7.47139
H         -0.45651       -0.08807        5.20914
