4
FOR-1.gamout	Energy:    -188.9505924
C          0.60231       -0.62303        0.66084
O         -0.27594        0.22600        0.91021
O          1.79735       -0.49878        0.32764
H          0.24089       -1.73339        0.75621
