4
FORMALDEHYDE.gamout	Energy:    -114.3562300
O         17.00000       30.01760        0.00000
C         17.00000       28.81793        0.00000
H         16.05525       28.21379       -0.00000
H         17.94475       28.21378        0.00000
