11
FURFURAL@ANTI.out Energy: -343.09879022
C 0.09484947 -0.27479211 0.00000000
O 1.09158882 0.66011952 0.00000000
C -1.13054503 0.35344145 0.00000000
C 0.48144808 -1.68303622 0.00000000
C 0.50587314 1.87162010 0.00000000
C -0.86200138 1.75168709 0.00000000
O -0.30952345 -2.60137660 0.00000000
H -2.09477096 -0.14971408 0.00000000
H 1.58924049 -1.84806164 0.00000000
H 1.17353039 2.73023166 0.00000000
H -1.58230179 2.56709889 0.00000000
