11
FURFURAL@SYN.out Energy: -343.09704955
C -0.26965876 -0.24981260 0.00000000
O 1.00573952 0.22838051 0.00000000
C -1.15908747 0.80395270 0.00000000
C -0.49550457 -1.69261898 0.00000000
C 0.93259906 1.57087460 0.00000000
C -0.37347047 1.99231423 0.00000000
O 0.36889119 -2.53953718 0.00000000
H -2.24475635 0.72430254 0.00000000
H -1.58505729 -1.95695938 0.00000000
H 1.88080073 2.10386940 0.00000000
H -0.72239656 3.02254569 0.00000000
