19
GLUTAMINATE-1.gamout	Energy:    -530.5434321
O          3.31993        0.71215       -0.51082
O         -0.51156       -1.79243        0.07345
O         -2.53524       -0.81759       -0.09566
N         -1.69969        1.51511        1.03007
N          2.07389       -1.05085        0.23450
C          0.00837        1.23371       -0.69722
C         -0.68751        0.57812        0.51438
C          1.09376        0.40803       -1.41550
C          2.28340        0.04934       -0.52504
C         -1.31258       -0.81111        0.13647
H          0.43264        2.19527       -0.35973
H         -0.77787        1.48396       -1.43261
H          0.07171        0.40832        1.29623
H          0.64393       -0.51744       -1.80573
H          1.49749        0.99376       -2.25505
H         -1.91565        1.22116        1.98630
H         -2.54878        1.22890        0.52210
H          1.10181       -1.46606        0.27105
H          2.78312       -1.26243        0.92711
