16
GLUTARATE_MONOANION-1.gamout	Energy:    -495.0921525
O          3.03358        1.18118        0.34411
O          2.73289       -0.67582       -0.86117
O         -3.48909        0.07813       -0.02190
O         -1.60502        0.93605       -0.92568
C          0.04689       -1.05590        0.28392
C          0.85366        0.23750        0.38183
C         -1.41412       -0.85124        0.69357
C          2.25842        0.15336       -0.11446
C         -2.25793        0.15334       -0.18206
H          0.09416       -1.40548       -0.76071
H          0.51874       -1.84725        0.89859
H          0.28425        0.96286       -0.24522
H          0.86254        0.65289        1.40402
H         -1.95328       -1.81363        0.68886
H         -1.46601       -0.49262        1.74137
H          3.89403        1.04764       -0.08677
