50
GLYCERYL_TRIBENZOATE.gamout	Energy:   -1376.2129369
O          0.00930       -0.92388       -0.70307
O          1.85648        1.17935       -0.73489
O         -2.34982        0.69712       -0.96792
O          0.34788       -2.39495       -2.37803
O          1.97755        3.17811        0.28558
O         -4.06328        1.08466       -2.37147
C         -0.10102        0.16346       -1.63219
C          0.46254        1.39128       -0.94581
C         -1.53764        0.35347       -2.09033
C          0.26873       -2.15558       -1.19442
C          0.43084       -3.16648       -0.11369
C          2.51580        2.15785       -0.07917
C         -3.62817        1.03802       -1.24384
C          3.95391        1.83453        0.13410
C         -4.41858        1.33771       -0.01878
C          0.58066       -4.51028       -0.48517
C          0.44074       -2.81100        1.24254
C          4.75227        2.79313        0.77343
C         -5.74944        1.74586       -0.18458
C          4.51680        0.61792       -0.27612
C         -3.88225        1.21194        1.27017
C          0.73389       -5.49114        0.49174
C          0.60047       -3.79584        2.21683
C          0.74490       -5.13494        1.84379
C          6.10293        2.53879        0.99791
C         -6.53581        2.02899        0.92916
C          5.86965        0.36772       -0.05027
C         -4.67316        1.49596        2.38246
C          6.66335        1.32621        0.58553
C         -5.99896        1.90443        2.21398
H          0.49468       -0.08356       -2.52380
H         -0.04144        1.57305        0.01483
H          0.31031        2.28488       -1.57243
H         -1.91787       -0.56622       -2.55948
H         -1.59310        1.14987       -2.84925
H          0.57224       -4.75940       -1.54725
H          0.32581       -1.76404        1.52130
H          4.28897        3.73035        1.08468
H         -6.14315        1.83195       -1.19825
H          3.88816       -0.12496       -0.76673
H         -2.84926        0.88686        1.39058
H          0.84654       -6.53797        0.20184
H          0.61238       -3.52038        3.27359
H          0.86714       -5.90436        2.60987
H          6.72437        3.28693        1.49473
H         -7.57228        2.34777        0.79922
H          6.30884       -0.57958       -0.37019
H         -4.25644        1.39738        3.38694
H          7.72313        1.12663        0.76152
H         -6.61652        2.12550        3.08780
