41
GRISEOFULVIN.gamout	Energy:   -1567.9150943
Cl         2.10893       -3.11116       -0.59275
O         -0.25904       -1.22326       -0.52737
O         -1.29978       -0.93739        1.86020
O         -1.07955        2.16485        0.06993
O         -5.44774        0.18773       -0.15807
O          2.28673        2.77314        0.14640
O          4.45369       -1.41881       -0.18131
C         -1.28255       -0.22355       -0.37911
C         -2.15406       -0.22983       -1.65290
C         -3.45304        0.55238       -1.43830
C         -0.51092        1.10940       -0.13800
C         -2.09633       -0.55022        0.85825
C         -1.39936        0.23539       -2.89945
C          0.90421        0.75248       -0.19298
C          0.94834       -0.65442       -0.36509
C         -4.23354        0.10313       -0.21507
C         -3.44035       -0.39514        0.91599
C          2.12825        1.45222       -0.03274
C          2.12324       -1.38789       -0.36833
C          3.31843        0.71419       -0.02375
C          3.33431       -0.68232       -0.18023
C         -1.85927       -1.21905        3.12856
C          1.44232        3.71546       -0.50747
C          5.71077       -0.79763       -0.00262
H         -2.41389       -1.29372       -1.78971
H         -4.11268        0.45669       -2.31173
H         -3.23248        1.62690       -1.30876
H         -1.18750        1.31646       -2.86928
H         -0.44885       -0.30568       -3.01604
H         -2.00555        0.04270       -3.79704
H         -4.00667       -0.61245        1.82117
H          4.24035        1.27889        0.09693
H         -1.02078       -1.50273        3.77668
H         -2.57781       -2.05345        3.06738
H         -2.36666       -0.33190        3.54488
H          0.41242        3.67149       -0.13001
H          1.44000        3.54026       -1.59788
H          1.88121        4.70071       -0.30405
H          5.77552       -0.27557        0.96795
H          5.93064       -0.08098       -0.81317
H          6.45583       -1.60354       -0.02565
