53
HDA+1.gamout	Energy:    -684.9362906
N          0.95961       -0.00368        0.36920
C          0.55113       -0.12627       -1.09114
C          0.98817        1.09475       -1.88703
C          0.57331        0.98894       -3.36388
C          1.00686        2.20277       -4.19803
C          0.57214        2.12364       -5.66819
C          1.02450        3.32644       -6.50833
C          0.55230        3.27985       -7.96786
C          1.03522        4.46571       -8.81465
C          0.53001        4.44733      -10.26374
C          1.03893        5.61672      -11.11854
C          0.51593        5.61180      -12.56149
C          1.03794        6.77077      -13.42268
C          0.50718        6.76958      -14.86251
C          1.03251        7.92298      -15.72743
C          0.49641        7.92026      -17.16311
C          1.02676        9.07379      -18.01774
H          0.67469       -0.82312        0.92419
H          0.53835        0.82929        0.80709
H          1.98137        0.09523        0.46409
H         -0.54145       -0.25749       -1.09108
H          1.01131       -1.05529       -1.45924
H          2.08641        1.20739       -1.81944
H          0.54189        2.00497       -1.44422
H         -0.52409        0.87075       -3.42053
H          1.00658        0.06798       -3.79477
H          2.10684        2.30577       -4.14485
H          0.59218        3.12211       -3.74359
H         -0.52962        2.03544       -5.71548
H          0.96966        1.19349       -6.11614
H          2.12866        3.39207       -6.48294
H          0.65738        4.25788       -6.03733
H         -0.55314        3.24015       -7.98903
H          0.89490        2.33608       -8.43258
H          2.14146        4.48453       -8.81415
H          0.72054        5.41023       -8.33199
H         -0.57636        4.45091      -10.26117
H          0.82393        3.49296      -10.74017
H          2.14526        5.60151      -11.13199
H          0.76007        6.57146      -10.63371
H         -0.59023        5.63845      -12.54619
H          0.78388        4.65164      -13.04211
H          2.14401        6.73919      -13.44246
H          0.77612        7.73135      -12.93935
H         -0.59881        6.80556      -14.84180
H          0.76464        5.80691      -15.34429
H          2.13859        7.88636      -15.75318
H          0.77730        8.88722      -15.24715
H         -0.60870        7.95881      -17.13819
H          0.75112        6.95753      -17.64464
H          0.75930       10.05306      -17.58412
H          0.61506        9.03896      -19.03849
H          2.12678        9.04153      -18.10104
