19
HEPTENE-6-NITRILES.gamout	Energy:    -327.6273894
C         -1.83182       -0.06875        0.17744
C         -0.61503       -0.88185        0.09338
C         -0.40804       -1.52651       -1.29197
C          0.86971       -2.36846       -1.36507
C          1.09522       -3.02254       -2.74101
C          2.37518       -3.80759       -2.82156
C          2.46619       -5.11713       -3.07061
N         -2.79811        0.56926        0.22379
H          0.24385       -0.23617        0.34778
H         -0.66312       -1.65674        0.87828
H         -1.28577       -2.15148       -1.53074
H         -0.38040       -0.73014       -2.05553
H          1.74163       -1.73474       -1.11730
H          0.84067       -3.15868       -0.59322
H          0.24232       -3.67949       -2.98601
H          1.10791       -2.22728       -3.51114
H          3.29876       -3.23744       -2.64887
H          3.43396       -5.62422       -3.10962
H          1.57639       -5.73123       -3.24873
