35
HEPTYL_BUTYRATE.out Energy: -582.48013889
O 0.26085652 1.71711172 0.00000000
O -1.59433574 2.98766636 0.00000000
C 0.50401336 -3.23716016 0.00000000
C -0.39771836 -1.99919645 0.00000000
C -0.26757240 -4.55977282 0.00000000
C 0.37295883 -0.67612854 0.00000000
C 0.62592183 -5.80412279 0.00000000
C -0.54788567 0.53121101 0.00000000
C -0.15756524 -7.11765110 0.00000000
C 0.58047902 4.05929807 0.00000000
C -0.10405058 5.42431907 0.00000000
C -0.39060759 2.89613471 0.00000000
C 0.88709437 6.58797666 0.00000000
H 1.17094754 -3.20190160 0.88131090
H 1.17094754 -3.20190160 -0.88131090
H -1.06466537 -2.03514700 -0.88129368
H -1.06466537 -2.03514700 0.88129368
H -0.93557334 -4.59203823 -0.88111583
H -0.93557334 -4.59203823 0.88111583
H 1.03285100 -0.62162191 -0.88341237
H 1.03285100 -0.62162191 0.88341237
H 1.29293592 -5.77194607 -0.88082143
H 1.29293592 -5.77194607 0.88082143
H -1.20624442 0.54207614 -0.88496941
H -1.20624442 0.54207614 0.88496941
H -0.80650968 -7.19717010 0.88835689
H 0.51391653 -7.99102205 0.00000000
H -0.80650968 -7.19717010 -0.88835689
H 1.24268815 3.94008133 0.87607791
H 1.24268815 3.94008133 -0.87607791
H -0.76936422 5.49029740 0.87676639
H -0.76936422 5.49029740 -0.87676639
H 0.36454097 7.55748228 0.00000000
H 1.54034866 6.56295292 0.88858810
H 1.54034866 6.56295292 -0.88858810
