77
HESPERIDIN.gamout	Energy:   -2212.9647136
O          3.45326       -0.24882        0.38340
O          1.69728       -2.38839        0.75901
O          0.80603       -4.55297        0.85662
O          5.18387       -2.83099       -1.50593
O          3.61379        2.03274        0.39414
O          6.98672       -0.65822       -1.67866
O          5.76191        1.90116       -1.44711
O         -0.63176       -3.53951        3.26479
O         -2.47388       -2.24935        1.93228
O         -2.43367       -3.81598       -0.61220
O         -1.11225        1.98725       -0.26871
O          1.19180        5.97826        1.07055
O         -1.33073        6.00021        0.51410
O         -6.24564       -1.18893       -1.63583
O         -4.56644       -1.81516        0.29267
C          3.60415       -1.46378       -0.34002
C          5.07886       -1.67449       -0.71137
C          5.60921       -0.45294       -1.44989
C          5.32848        0.81652       -0.66250
C         -0.14450       -2.74458        2.19009
C          1.09836       -3.37732        1.54951
C         -1.30880       -2.65165        1.20823
C         -1.52655       -3.96685        0.45361
C          3.83422        0.87790       -0.35730
C          3.07566       -2.58630        0.52018
C         -0.19896       -4.43079       -0.15732
C         -0.30704       -5.77075       -0.85091
C          2.38489        2.62199        0.39757
C          1.20096        1.93652        0.08478
C          0.00611        2.65450        0.07124
C          2.38491        3.97223        0.75290
C         -2.37107        2.56489        0.14634
C         -0.02954        4.03198        0.39789
C         -2.44443        4.02655       -0.28053
C          1.18713        4.68516        0.76001
C         -1.25424        4.79275        0.25578
C         -3.45830        1.64864       -0.35395
C         -3.55176        0.36953        0.21922
C         -4.34147        1.98099       -1.37710
C         -4.47712       -0.56743       -0.23170
C         -5.29803        1.05865       -1.82816
C         -5.37622       -0.21977       -1.27244
C         -7.19363       -0.91979       -2.63881
H          3.01821       -1.42462       -1.28004
H          5.66426       -1.77530        0.22600
H          5.06693       -0.36960       -2.41448
H          5.86309        0.77094        0.30687
H          0.12411       -1.73149        2.53384
H          1.79289       -3.69162        2.35225
H         -1.10523       -1.86270        0.46752
H         -1.86280       -4.73493        1.18151
H          3.26010        0.92732       -1.30586
H          3.62904       -2.59295        1.48102
H          3.25850       -3.54402        0.00556
H          0.11064       -3.65691       -0.88175
H         -1.07335       -5.72762       -1.63707
H         -0.57973       -6.55717       -0.12890
H          0.65766       -6.03595       -1.30309
H          6.08696       -2.85082       -1.85571
H          7.33024        0.14064       -2.10399
H          5.58896        2.70992       -0.94632
H         -0.00380       -3.50908        3.99660
H         -2.43673       -2.72824        2.77920
H         -3.24642       -3.37087       -0.31962
H          1.17885        0.86545       -0.09878
H          3.31831        4.47409        1.00074
H         -2.37315        2.54309        1.25450
H         -3.36417        4.50367        0.08412
H         -2.43231        4.11686       -1.38197
H         -2.88420        0.07992        1.03418
H         -4.30409        2.96488       -1.84608
H          0.25429        6.29870        0.96195
H         -5.97790        1.35466       -2.62674
H         -3.91947       -1.90112        1.02845
H         -7.85434       -0.07555       -2.36721
H         -6.71750       -0.69457       -3.61149
H         -7.80219       -1.82806       -2.74348
