19
HEX-1.gamout	Energy:    -385.2450055
O         -3.56098        2.73301        0.00100
O         -3.66411        0.46912       -0.00142
C          0.62659        0.04899       -0.00047
C         -0.90595        0.11511        0.00046
C          1.19999       -1.37424       -0.00020
C         -1.50038        1.52307        0.00008
C          2.72982       -1.43468        0.00024
C         -3.08414        1.57921        0.00064
H          1.02000        0.59359        0.88146
H          1.02015        0.59437       -0.88154
H         -1.30776       -0.43122       -0.87182
H         -1.30799       -0.43030        0.87312
H          0.81323       -1.92157        0.88011
H          0.81352       -1.92103       -0.88095
H         -1.14888        2.09881        0.87865
H         -1.14971        2.09716       -0.88022
H          3.10143       -2.47396       -0.00009
H          3.15284       -0.93230       -0.88784
H          3.15253       -0.93295        0.88880
