49
HEXADECANOATE-1.gamout	Energy:    -777.8111542
O         -7.15847       -1.12564       -1.09653
O         -8.88187       -1.28373        0.36263
C          1.57582        0.56991       -0.32175
C          0.24663       -0.03003        0.15694
C          2.81428       -0.21732        0.12740
C         -0.99829        0.76088       -0.26805
C          4.14968        0.39376       -0.31801
C         -2.31989        0.17985        0.25375
C          5.38320       -0.38948        0.15101
C         -3.56982        0.98010       -0.13971
C          6.72201        0.22862       -0.27332
C         -4.88187        0.40582        0.40903
C          7.95360       -0.54883        0.20744
C         -6.12985        1.21346        0.03941
C          9.28945        0.07635       -0.20867
C         -7.42926        0.59901        0.56412
C         10.51244       -0.70241        0.28034
C         -7.86779       -0.75167       -0.12981
H          1.65570        1.61149        0.04403
H          1.56978        0.64221       -1.42627
H          0.26488       -0.10933        1.26087
H          0.16264       -1.06945       -0.21310
H          2.74451       -1.25455       -0.25177
H          2.80709       -0.30401        1.23079
H         -0.89875        1.80645        0.08277
H         -1.03320        0.82055       -1.37270
H          4.21548        1.43301        0.05678
H          4.16631        0.47406       -1.42177
H         -2.42803       -0.86096       -0.10454
H         -2.26981        0.10904        1.35762
H          5.32394       -1.42619       -0.23147
H          5.35856       -0.47815        1.25394
H         -3.63245        1.03457       -1.24338
H         -3.44612        2.02733        0.20439
H          6.77840        1.26688        0.10574
H          6.75260        0.31247       -1.37640
H         -4.80972        0.32635        1.51250
H         -5.04274       -0.61240        0.01782
H          7.92255       -0.63626        1.31038
H          7.90407       -1.58613       -0.17544
H         -6.01495        2.25693        0.40073
H         -6.20174        1.25162       -1.06138
H          9.32431        0.16028       -1.31082
H          9.33859        1.11366        0.17172
H         -8.26426        1.31086        0.42957
H         -7.37491        0.41758        1.65456
H         10.53239       -0.77138        1.38171
H         11.45067       -0.22122       -0.03903
H         10.51769       -1.73376       -0.11279
