48
HEXAETHYLBENZENE.gamout	Energy:    -702.9913233
C          6.18480        6.23799        4.95786
C          5.19473        5.13459        5.36641
C          4.76921        4.23808        4.20876
C          5.53464        3.09430        3.88999
C          3.65251        4.58891        3.41420
C          6.73235        2.71646        4.75275
C          5.16342        2.27729        2.79966
C          2.81201        5.79711        3.81258
C          3.31135        3.80102        2.28541
C          6.37498        1.79812        5.93210
C          6.01349        1.06374        2.44283
C          4.04671        2.62159        2.00301
C          1.76411        5.50455        4.90218
C          2.20594        4.25643        1.33985
C          7.16128        1.38569        1.47188
C          3.63474        1.69190        0.86726
C          0.78876        3.75048        1.64809
C          2.77256        0.49488        1.30846
H          6.46274        6.85689        5.82611
H          5.75443        6.90344        4.19246
H          7.10975        5.81727        4.53224
H          4.31543        5.60221        5.82771
H          5.64248        4.52874        6.16634
H          7.21859        3.62331        5.13684
H          7.49946        2.22711        4.13720
H          2.29161        6.20559        2.93706
H          3.46486        6.61112        4.15968
H          5.64299        2.27159        6.60595
H          7.26962        1.55031        6.52558
H          5.92681        0.85315        5.58530
H          5.38707        0.27547        2.00591
H          6.43082        0.61747        3.35569
H          1.19232        6.41450        5.14572
H          2.22823        5.13924        5.83191
H          1.04839        4.73454        4.57684
H          2.18709        5.35539        1.31341
H          2.46778        3.96265        0.31324
H          6.78359        1.79439        0.52101
H          7.74814        0.48211        1.24154
H          7.84780        2.13735        1.89308
H          4.52992        1.31393        0.35198
H          3.08042        2.24773        0.10056
H          0.73305        2.65194        1.61969
H          0.06905        4.14115        0.91092
H          0.45195        4.07022        2.64547
H          2.50597       -0.13009        0.44115
H          1.83775        0.82493        1.78655
H          3.29610       -0.14561        2.03577
