32
HEXYL_NICOTINATE.gamout	Energy:    -671.8351811
O         -0.14024        0.55644        0.02618
O          0.82369        2.58993       -0.00733
N          3.44710       -1.41552        0.23520
C         -3.91435        0.60749       -0.09287
C         -4.98976       -0.48500       -0.09924
C         -2.48151        0.06392       -0.03854
C         -6.42430        0.05376       -0.14912
C         -1.43782        1.16689       -0.03248
C         -7.48979       -1.04384       -0.15507
C          0.91667        1.38410        0.03685
C          2.21162        0.64911        0.11106
C          3.40307        1.38302        0.12782
C          2.29321       -0.75088        0.16701
C          4.61017        0.69523        0.19838
C          4.57633       -0.70278        0.24991
H         -4.08215        1.27883        0.77019
H         -4.03274        1.24061       -0.99213
H         -4.82352       -1.15661       -0.96278
H         -4.87130       -1.11978        0.79927
H         -2.29592       -0.59963       -0.90184
H         -2.34919       -0.55813        0.86450
H         -6.58995        0.72445        0.71435
H         -6.54317        0.68874       -1.04659
H         -1.49707        1.79620       -0.93637
H         -1.55470        1.83958        0.83389
H         -8.50499       -0.61837       -0.19033
H         -7.37665       -1.70908       -1.02798
H         -7.42333       -1.67322        0.74872
H          3.35519        2.47307        0.08502
H          1.37638       -1.34631        0.15591
H          5.56483        1.22444        0.21385
H          5.51178       -1.27133        0.30618
