32
HEXYL_ISOBUTYRATE.out Energy: -543.19400640
O -0.28598226 -1.28829532 0.00165198
O 1.52670973 -2.61812344 -0.00349670
C 0.47816253 2.41091286 -0.00028310
C -0.39821494 3.66687432 0.00120184
C -0.32441580 1.10625652 0.00191301
C 0.39254071 4.97897799 -0.00138388
C 0.56123443 -0.12708328 -0.00008706
C -0.66801345 -3.64167048 0.00128426
C -0.49441297 6.22546194 -0.00025186
C 0.32575476 -2.48764173 -0.00047314
C -0.47755802 -4.48143876 -1.27064337
C -0.47065467 -4.48363697 1.27068644
H 1.14749870 2.43257423 0.87975591
H 1.14372325 2.43200360 -0.88316386
H -1.06830904 3.64395370 -0.87841576
H -1.06428568 3.64485276 0.88386262
H -0.98781632 1.06853642 -0.87977191
H -0.98375207 1.06882725 0.88661072
H 1.06191398 5.00202618 0.87810414
H 1.05813987 5.00086513 -0.88373478
H 1.21642277 -0.16028205 -0.88666683
H 1.22009954 -0.16041727 0.88380372
H -1.67929959 -3.20671758 0.00438389
H 0.10572924 7.14938617 -0.00222315
H -1.14949191 6.25257543 -0.88748338
H -1.14564421 6.25381902 0.88974988
H -1.18358577 -5.32668160 -1.28393880
H 0.54687856 -4.88295270 -1.31404179
H -0.64751866 -3.88276061 -2.17959393
H -1.17652161 -5.32897317 1.28629579
H -0.63576330 -3.88657669 2.18159229
H 0.55403884 -4.88511486 1.30785207
