22
HEXYLENE_GLYCOL.gamout	Energy:    -386.9884237
C          3.47125        0.26985        2.01090
C          4.06441        1.62216        1.54501
C          2.36135       -0.32899        1.14290
C          5.05721        2.13624        2.59871
C          4.74811        1.54054        0.18059
O          3.01035        2.57990        1.38268
C          1.53135       -1.36999        1.89789
O          2.97890       -0.92174        0.00324
H          4.27499       -0.48086        2.10627
H          3.06541        0.42126        3.02754
H          1.70011        0.50350        0.83085
H          5.46095        3.11321        2.29199
H          4.56402        2.26410        3.57833
H          5.89912        1.43948        2.74011
H          5.13235        2.53486       -0.09383
H          5.58587        0.82713        0.20165
H          4.04071        1.20487       -0.58701
H          2.62522        2.74751        2.25380
H          0.76426       -1.80714        1.23642
H          1.00866       -0.92664        2.76142
H          2.17236       -2.19118        2.25930
H          2.28351       -1.19007       -0.61117
