32
HEXYL_BUTYRATE.out Energy: -543.19467089
O -0.24259533 -1.10644795 0.00000000
O 1.59859181 -2.39756441 0.00000000
C 0.45018292 2.60604605 0.00000000
C -0.44457239 3.84903845 0.00000000
C -0.32971586 1.28814007 0.00000000
C 0.33307101 5.16872243 0.00000000
C 0.57914280 0.07126438 0.00000000
C -0.56257512 6.40824153 0.00000000
C -0.58804899 -3.44561582 0.00000000
C 0.08078079 -4.81886267 0.00000000
C 0.39615184 -2.29308422 0.00000000
C -0.92246762 -5.97222783 0.00000000
H 1.11721672 2.63864369 0.88139189
H 1.11721672 2.63864369 -0.88139189
H -1.11199508 3.81831749 -0.88142225
H -1.11199508 3.81831749 0.88142225
H -0.99027290 1.23958790 -0.88327177
H -0.99027290 1.23958790 0.88327177
H 1.00035530 5.19573326 0.88079054
H 1.00035530 5.19573326 -0.88079054
H 1.23733523 0.05265988 -0.88498976
H 1.23733523 0.05265988 0.88498976
H 0.03097710 7.33638633 0.00000000
H -1.21589247 6.43151782 -0.88845806
H -1.21589247 6.43151782 0.88845806
H -1.24897083 -3.31853324 0.87599343
H -1.24897083 -3.31853324 -0.87599343
H 0.74533801 -4.89280366 -0.87672086
H 0.74533801 -4.89280366 0.87672086
H -0.40935371 -6.94677687 0.00000000
H -1.57544651 -5.94113578 0.88857952
H -1.57544651 -5.94113578 -0.88857952
