6
HSO4-1.gamout	Energy:    -699.1456810
S          1.33836        0.07437        1.22550
O          0.02678       -0.37947        1.72957
O          1.76449       -0.51949       -0.07330
O          1.05308        1.70386        0.75050
O          2.40072        0.15857        2.24971
H          1.31387        1.65706       -0.18067
