56
HYDROCORTISONE.gamout	Energy:   -1192.7983125
O          2.97421       -0.75421       -1.35511
O         -0.48484        2.09697        1.31571
O          4.31551        1.28371        0.77167
O          5.66939       -1.31487       -1.16593
O         -6.44864        0.45447       -1.83416
C          1.68447       -0.06779        0.57608
C          0.75549       -1.27978        0.32515
C         -0.71210       -1.05197        0.72217
C         -1.26418        0.20534       -0.01098
C          3.03096       -0.66540        0.07381
C          1.14660        1.11202       -0.23636
C         -2.78603        0.50525        0.29517
C         -0.33053        1.44315        0.05703
C          1.53767       -2.46812        0.91729
C          3.03126       -2.09071        0.70501
C         -1.57397       -2.26909        0.35692
C          1.79062        0.28278        2.07289
C         -3.58698       -0.75551       -0.01400
C         -3.07386       -2.03768        0.58664
C         -3.27036        1.66603       -0.60428
C         -3.05301        0.85560        1.77963
C          4.30837        0.15011        0.34527
C         -4.78970        1.78794       -0.71643
C         -4.74237       -0.73515       -0.71681
C         -5.42332        0.49071       -1.17694
C          5.65400       -0.52635        0.01894
H          0.76089       -1.42428       -0.76826
H         -0.77031       -0.89676        1.81366
H         -1.24790       -0.06478       -1.08384
H          1.24867        0.87848       -1.30615
H          1.74872        2.01880       -0.05864
H         -0.65766        2.13611       -0.73951
H          1.28654       -3.41534        0.41938
H          1.31520       -2.60336        1.98885
H          3.58727       -2.10101        1.65615
H          3.55036       -2.78930        0.03219
H         -1.26035       -3.15400        0.93282
H         -1.41017       -2.51600       -0.70842
H          2.40083        1.18440        2.20632
H          0.80097        0.48220        2.49705
H          2.25861       -0.51908        2.66015
H         -3.26677       -1.99931        1.67577
H         -3.65394       -2.89038        0.20477
H         -2.86548        1.51870       -1.62096
H         -2.85257        2.61059       -0.23219
H         -2.61136        0.11778        2.46302
H         -2.62633        1.83158        2.03154
H         -4.13609        0.87167        1.97535
H          3.74089       -1.29040       -1.61710
H         -5.08092        2.58262       -1.41682
H         -5.24157        2.04748        0.25919
H          0.23119        2.74022        1.40239
H         -5.27836       -1.66459       -0.92682
H          5.88970       -1.20657        0.85628
H          6.42006        0.26606        0.00951
H          5.89040       -0.73395       -1.90657
