2
HYDROGEN_BROMIDE.out Energy: -2574.47302970
Br 0.00000000 0.00000000 0.03497508
H 0.00000000 0.00000000 -1.39327508
