26
HYDRAZOBENZENE.gamout	Energy:    -573.2081613
N          6.99283        4.10086        0.76980
N          7.34309        2.77926        0.64588
C          6.48988        1.85270        0.03333
C          7.50991        5.08028       -0.08435
C          6.68280        0.47870        0.27158
C          5.46041        2.25102       -0.83658
C          6.94622        6.37001       -0.06763
C          8.59977        4.82683       -0.93395
C          5.87393       -0.46812       -0.35285
C          4.65603        1.29122       -1.45459
C          7.46514        7.37828       -0.87792
C          9.10696        5.84515       -1.74157
C          4.85260       -0.07110       -1.22157
C          8.54987        7.12603       -1.72221
H          6.08300        4.29305        1.18501
H          7.88905        2.41936        1.42434
H          7.47676        0.15754        0.95168
H          5.30365        3.31039       -1.04253
H          6.09726        6.58032        0.58939
H          9.03544        3.82790       -0.95617
H          6.04267       -1.52957       -0.15402
H          3.86421        1.61900       -2.13290
H          7.01202        8.37255       -0.84921
H          9.95386        5.62998       -2.39888
H          4.21933       -0.81470       -1.70918
H          8.95342        7.91681       -2.35734
