74
HYDROCORTISONE_6-HYDROXYHEXANOATE.gamout	Energy:   -1577.4232514
O          0.31285       -3.46715       -0.71202
O         -0.72495        1.64739       -0.31728
O          3.14553       -2.37905        1.04346
O          4.12999       -2.19366       -1.47715
O         -7.49638        1.93139       -1.65896
O          3.38494       -0.08871       -1.21194
O          6.47275        5.08109        1.31180
C          0.06941       -1.32861        0.42870
C         -1.28163       -1.81561        1.00039
C         -2.32765       -0.70278        1.18940
C         -2.55398        0.04922       -0.15485
C          0.83804       -2.70562        0.38096
C         -0.19289       -0.67722       -0.92984
C         -3.64096        1.19419       -0.06529
C         -1.24727        0.45070       -0.88847
C         -0.87602       -2.70136        2.19234
C          0.46894       -3.34486        1.74445
C         -3.66538       -1.28586        1.67198
C          0.80357       -0.35800        1.36981
C         -4.92764        0.57673        0.47043
C         -4.79830       -0.25084        1.72248
C         -3.88681        1.77847       -1.47553
C         -3.25131        2.33511        0.90643
C          2.34867       -2.55925        0.15373
C         -5.18147        2.57955       -1.61022
C         -6.13916        0.81559       -0.08059
C         -6.38843        1.77121       -1.17855
C          2.80438       -2.66381       -1.30833
C          4.30178       -0.86121       -1.37565
C          5.75357       -0.49019       -1.53145
C          6.02300        1.01323       -1.45148
C          5.96964        1.60273       -0.03720
C          6.25281        3.10630        0.00334
C          6.19729        3.69803        1.40469
H         -1.68651       -2.49742        0.23277
H         -1.95543        0.00614        1.94950
H         -3.00383       -0.70431       -0.82888
H          0.73732       -0.26006       -1.34943
H         -0.54076       -1.45086       -1.63106
H         -1.51826        0.65290       -1.94037
H         -0.73570       -2.10410        3.10819
H         -1.63464       -3.46262        2.42139
H          0.38666       -4.43935        1.62736
H          1.27978       -3.16862        2.46456
H         -3.96316       -2.10432        0.99080
H         -3.55429       -1.73517        2.67117
H          0.19013        0.52987        1.55595
H          1.73705       -0.01513        0.90354
H          1.06318       -0.81188        2.33356
H         -5.75432       -0.74694        1.94390
H         -4.61236        0.44332        2.56391
H         -3.92165        0.94790       -2.20184
H         -3.03509        2.41161       -1.75639
H         -2.95751        1.95224        1.89303
H         -2.40552        2.90529        0.51075
H         -4.10756        3.00878        1.06005
H          0.32948       -4.39977       -0.46249
H         -5.15131        3.48985       -0.98318
H         -5.34228        2.91739       -2.64272
H          0.14451        1.80948       -0.70718
H         -7.03710        0.34497        0.32846
H          2.81345       -3.72340       -1.60256
H          2.10403       -2.14151       -1.97375
H          6.07370       -0.89721       -2.50454
H          6.32457       -1.05785       -0.77615
H          7.01707        1.20500       -1.88767
H          5.29178        1.53165       -2.09399
H          6.70225        1.07516        0.60210
H          4.97611        1.40514        0.39998
H          7.25040        3.32447       -0.41932
H          5.52561        3.65082       -0.62496
H          6.93339        3.18011        2.05667
H          5.19547        3.51163        1.84741
H          6.43930        5.45905        2.19875
