3
HYDROGEN CYANIDE.out Energy: -93.35206422
N 0.00000000 0.00000000 -0.65979844
C 0.00000000 0.00000000 0.49548216
H 0.00000000 0.00000000 1.57454485
