1
I-1.out Energy: -297.87438634
I 0.00000000 0.00000000 0.00000000
