5
IODOMETHANE.gamout	Energy:    -337.5472030
I         -0.23647        0.00000        0.00001
C          1.93021       -0.00000       -0.00026
H          2.25732        0.00001        1.04455
H          2.26058       -0.90454       -0.52154
H          2.26051        0.90455       -0.52154
