17
ISO-AMYL_BROMIDE.gamout	Energy:   -2770.6067038
Br        60.10355        0.02658       -0.16647
C         58.13208        0.00502       -0.05310
C         57.54870        1.40612        0.04562
C         56.00607        1.43336        0.05980
C         55.41428        0.73733        1.29031
C         55.49873        2.87669       -0.03649
H         57.79709       -0.51936       -0.95872
H         57.90796       -0.61580        0.82299
H         57.93340        1.90152        0.95513
H         57.90886        1.99998       -0.81042
H         55.65499        0.89285       -0.84083
H         54.31366        0.78801        1.27961
H         55.68879       -0.32775        1.34552
H         55.75893        1.22044        2.22159
H         54.39801        2.90692       -0.06707
H         55.87264        3.38190       -0.94178
H         55.82424        3.47161        0.83477
