24
ISO-BUTYLBENZENE.gamout	Energy:    -388.9584246
C         -4.24570        1.59266       -2.77308
C         -5.37419        1.03458       -3.39603
C         -4.42382        2.75527       -2.00856
C         -6.63702        1.61288       -3.25508
C         -5.68590        3.33939       -1.86479
C         -6.79844        2.76918       -2.48657
H         -5.26155        0.13484       -4.00819
H         -3.55963        3.21369       -1.51992
H         -7.49972        1.16147       -3.75144
H         -5.79893        4.24593       -1.26469
H         -7.78560        3.22480       -2.37730
C         -2.88524        0.94648       -2.92857
H         -2.10240        1.65450       -2.60432
H         -2.70282        0.75555       -4.00057
C         -2.69683       -0.38490       -2.16369
H         -3.52625       -1.05250       -2.46430
C         -2.77328       -0.19544       -0.64674
C         -1.38094       -1.05687       -2.56894
H         -0.51439       -0.42761       -2.29937
H         -1.33570       -1.23612       -3.65541
H         -1.25573       -2.02659       -2.06092
H         -3.74791        0.21079       -0.33548
H         -1.99205        0.50166       -0.29487
H         -2.62415       -1.15263       -0.12261
