26
ISOAMYL_PROPIONATE.gamout	Energy:    -464.3292767
O          4.12530        3.25831        1.58981
C          3.06838        2.52838        2.00164
C          2.07028        2.33544        0.87910
O          2.94727        2.09837        3.12311
C          5.16309        3.53003        2.55129
C          0.84648        1.53155        1.30103
C          6.21223        2.42371        2.60521
C          6.93190        2.10571        1.28372
C          7.82674        0.87240        1.45091
C          7.74292        3.29289        0.75538
H          1.79452        3.33765        0.50813
H          2.60477        1.85492        0.04142
H          4.70189        3.66008        3.54057
H          5.59771        4.48653        2.22756
H          0.31471        2.02516        2.12809
H          0.14678        1.41731        0.45971
H          1.13249        0.52811        1.65053
H          6.95789        2.71949        3.36740
H          5.72768        1.51012        2.98704
H          6.15535        1.86481        0.53477
H          8.31367        0.59982        0.50107
H          8.62391        1.05948        2.19173
H          7.25217       -0.00184        1.79641
H          7.11292        4.17118        0.54573
H          8.25673        3.03176       -0.18336
H          8.51649        3.59895        1.48176
