29
ISOAMYL_BUTYRATE.out Energy: -503.90686912
O -0.50524880 0.26872876 0.00000000
O 1.50068545 1.28537375 0.00000000
C -0.44095896 -3.53797847 0.00000000
C -0.94360023 -2.07872161 0.00000000
C 0.14326349 -1.01422544 0.00000000
C 0.34762682 -3.89410882 -1.26891281
C 0.34762682 -3.89410882 1.26891281
C -0.51580137 2.63250761 0.00000000
C 0.33840933 3.89857963 0.00000000
C 0.29527903 1.35226915 0.00000000
C -0.49540215 5.17965354 0.00000000
H -1.35276503 -4.16273220 0.00000000
H -1.58550896 -1.91540058 0.88289784
H -1.58550896 -1.91540058 -0.88289784
H 0.79639976 -1.08166643 0.88446503
H 0.79639976 -1.08166643 -0.88446503
H 0.57465657 -4.97197565 -1.30163758
H 1.31049402 -3.35894172 -1.31916252
H -0.22094423 -3.64536043 -2.18001518
H 1.31049402 -3.35894172 1.31916252
H 0.57465657 -4.97197565 1.30163758
H -0.22094423 -3.64536043 2.18001518
H -1.18804102 2.59968687 -0.87594341
H -1.18804102 2.59968687 0.87594341
H 1.00666036 3.87963558 0.87687645
H 1.00666036 3.87963558 -0.87687645
H 0.14717485 6.07402464 0.00000000
H -1.14661515 5.23896423 -0.88841650
H -1.14661515 5.23896423 0.88841650
