24
ISOBUTYLBENZENE.gamout	Energy:    -388.9584703
C          1.94389        2.10311        2.20067
C          2.70272        2.91639        1.12579
C          4.19301        3.04652        1.35242
C          2.40511        0.64446        2.25493
C          0.43235        2.19091        1.96901
C          4.68701        3.89841        2.35322
C          5.11983        2.32363        0.58754
C          6.05748        4.01873        2.58671
C          6.49336        2.44109        0.81584
C          6.96820        3.28864        1.81825
H          2.16619        2.56616        3.18062
H          2.52006        2.45600        0.13920
H          2.25837        3.92612        1.08429
H          1.87763        0.09465        3.05059
H          2.19711        0.12926        1.30036
H          3.48544        0.56550        2.45016
H          0.15456        1.75006        0.99539
H         -0.12396        1.64716        2.74955
H          0.07991        3.23523        1.97275
H          3.98553        4.48238        2.95600
H          4.76026        1.65992       -0.20313
H          6.41658        4.69082        3.36966
H          7.19596        1.86908        0.20488
H          8.04178        3.38397        1.99744
