21
ISOPROPYL_PROPYL_ETHER.gamout	Energy:    -311.8528322
C         -0.86516       -0.16472       -0.33942
C         -2.08131        0.34588        0.42016
C         -3.40122       -0.15459       -0.16414
O          0.29533        0.37463        0.24487
C          1.52917       -0.02699       -0.33334
C          2.54294        1.05846        0.00110
C          1.96747       -1.40164        0.17540
H         -0.85111       -1.27486       -0.31781
H         -0.93175        0.12890       -1.41039
H         -1.98356        0.03577        1.47487
H         -2.04939        1.44904        0.41950
H         -3.53029        0.17066       -1.21053
H         -3.45795       -1.25632       -0.15082
H         -4.26060        0.22742        0.40840
H          1.40977       -0.07579       -1.43675
H          2.64311        1.15739        1.09420
H          3.53266        0.81940       -0.41928
H          2.21414        2.02853       -0.40040
H          2.10128       -1.37700        1.26935
H          1.22416       -2.17919       -0.05985
H          2.92166       -1.70607       -0.28475
