24
ISOPHORONE.gamout	Energy:    -426.0263028
C         -2.26139        1.69472        0.86541
C         -1.11531        0.91319        0.28992
C          0.09733        1.46761        0.07430
C         -1.39021       -0.53127       -0.06132
C          1.22381        0.72397       -0.52311
C          0.43900       -1.72735        1.20743
C          0.90010       -0.67255       -1.03804
C         -0.13806       -1.42463       -0.18591
C         -0.51488       -2.75069       -0.86179
O          2.33423        1.21267       -0.63225
H         -1.99148        2.74275        1.05876
H         -2.60777        1.24143        1.81101
H         -3.12760        1.68110        0.17908
H          0.30311        2.50960        0.33457
H         -1.95098       -0.54737       -1.01652
H         -2.08289       -0.96323        0.68270
H          0.69634       -0.81000        1.75853
H          1.35414       -2.33525        1.12601
H         -0.28632       -2.29130        1.81588
H          1.84348       -1.23060       -1.13217
H          0.50123       -0.54680       -2.06291
H         -0.90921       -2.58890       -1.87829
H         -1.28645       -3.28283       -0.28133
H          0.35983       -3.41612       -0.94315
