23
ISOPROPYL_N-BUTYRATE.gamout	Energy:    -425.0780134
C         -0.23985        0.19217       -0.20452
C         -1.50758       -0.49158        0.26700
C         -2.78643        0.22298       -0.16010
C         -4.05308       -0.48258        0.32478
O         -0.19602        1.20657       -0.85899
O          0.84769       -0.48643        0.20534
C          2.15371        0.01701       -0.16634
C          2.63663        1.01323        0.88045
C          3.05124       -1.20068       -0.30805
H         -1.47946       -1.53098       -0.10696
H         -1.44271       -0.58381        1.36617
H         -2.75948        1.25940        0.21603
H         -2.79657        0.31070       -1.25944
H         -4.08427       -0.54922        1.42588
H         -4.95650        0.05671       -0.00010
H         -4.12020       -1.51098       -0.06972
H          2.04603        0.53230       -1.13353
H          2.71604        0.53394        1.86982
H          3.62831        1.40559        0.60353
H          1.94471        1.86496        0.95281
H          2.64940       -1.89118       -1.06459
H          4.06355       -0.89690       -0.61735
H          3.12630       -1.74293        0.64836
