13
ISOPRENE.gamout	Energy:    -195.0265978
C          1.80380        2.12723        1.26750
C          3.25524        2.11937        1.54891
C          4.02470        0.94955        0.98405
C          3.85180        3.07810        2.27819
C          1.04260        3.21189        1.06640
H          1.33320        1.13771        1.19147
H          3.94624        0.91459       -0.11687
H          3.61719       -0.00585        1.36003
H          5.08987        0.99648        1.25284
H          4.93039        3.06558        2.45837
H          3.28144        3.89514        2.72768
H          1.46516        4.22162        1.07501
H         -0.03056        3.12375        0.87690
