18
ISOPROPYLCYCLOPROPANE.gamout	Energy:    -235.4966149
C          2.49848        0.93281        3.95891
C          2.04648        2.13284        3.11761
C          0.52940        2.11307        2.89347
C          2.79580        2.19033        1.79564
C          2.99699        3.49903        1.07512
C          4.17315        2.79759        1.71102
H          2.26881       -0.01700        3.44521
H          1.98960        0.91201        4.93685
H          3.58443        0.95745        4.14266
H          2.29647        3.05467        3.67726
H          0.19781        2.98913        2.31390
H         -0.01955        2.11196        3.84973
H          0.22561        1.21048        2.33516
H          2.62173        1.31655        1.15304
H          2.92757        3.51443       -0.01642
H          2.62466        4.40983        1.55633
H          4.91457        2.32895        1.05753
H          4.59555        3.23481        2.62185
