23
ISOPENTYL_ACETATE.gamout	Energy:    -425.0713099
C          1.97180        2.15734        2.37996
C          3.34012        2.30430        1.69413
C          1.32148        0.79517        2.10884
C          1.03646        3.29671        1.96000
C          4.39706        1.32600        2.18065
O          5.63438        1.67225        1.54234
C          6.71133        0.92965        1.86325
O          6.67518        0.00748        2.64011
C          7.94434        1.42491        1.14677
H          2.13702        2.24270        3.47149
H          3.22327        2.19577        0.60012
H          3.72505        3.32458        1.86292
H          0.34028        0.72078        2.60450
H          1.93534       -0.04257        2.47439
H          1.16026        0.64458        1.02688
H          0.83361        3.26380        0.87528
H          1.47123        4.28305        2.18870
H          0.06840        3.22743        2.48121
H          4.15168        0.27924        1.93913
H          4.52437        1.37945        3.27577
H          7.69434        1.77840        0.13698
H          8.36729        2.27735        1.70432
H          8.69468        0.62511        1.11001
