20
L-ASCORBIC_ACID.gamout	Energy:    -683.9271396
C          5.98822        5.28882        4.52205
C          7.10630        4.40642        4.17727
O          4.87415        4.89376        3.81929
O          5.99664        6.21146        5.29617
C          6.66448        3.48210        3.29667
O          8.31304        4.57041        4.75141
C          5.21727        3.79402        2.98395
O          7.31229        2.45831        2.73605
C          4.28671        2.60979        3.23589
O          2.16786        1.63835        3.04332
C          2.82351        2.89008        2.92337
O          4.76284        1.56880        2.39045
H          8.23176        5.34221        5.33771
H          5.10793        4.10064        1.92582
H          6.63548        1.84710        2.38156
H          4.37128        2.31513        4.30045
H          1.25329        1.72481        2.74858
H          2.73876        3.29484        1.89527
H          2.43216        3.64499        3.62875
H          4.07362        0.88460        2.37798
