20
LEPIDINE.gamout	Energy:    -440.6515781
C         -3.90056       -2.13865        1.70810
C         -5.34761       -1.85175        2.01139
C         -3.46937       -3.43316        1.26926
C         -2.93372       -1.16149        1.84277
C         -2.07259       -3.62218        1.00287
C         -4.35055       -4.53418        1.08541
C         -1.57750       -1.45600        1.55197
N         -1.15006       -2.62923        1.14905
C         -1.61617       -4.89508        0.56656
C         -3.87593       -5.75787        0.66045
C         -2.49666       -5.94180        0.39825
H         -5.48119       -0.80877        2.33060
H         -5.98727       -2.02138        1.12888
H         -5.72834       -2.50456        2.81493
H         -3.20450       -0.15579        2.17374
H         -5.41713       -4.41076        1.28310
H         -0.82381       -0.66648        1.66518
H         -0.54740       -5.00081        0.37384
H         -4.56815       -6.59237        0.52470
H         -2.13520       -6.91663        0.06215
