29
LINALOOL.gamout	Energy:    -466.4335045
C         -1.99592        1.19225       -0.26473
C         -0.74820        2.05753       -0.24737
C         -0.82898        3.20474        0.76455
H          0.05959        3.84508        0.67805
H         -0.88968        2.83375        1.79952
H         -1.71519        3.83301        0.57796
C          0.48218        1.15682       -0.00137
C          1.84829        1.84456       -0.13665
H          0.43409        0.32618       -0.72612
H          0.38365        0.70313        0.99999
C          3.01109        0.89956        0.05668
H          1.92462        2.67326        0.59223
H          1.89874        2.32681       -1.12916
C          4.30771        1.24502       -0.02464
C          4.72456        2.66370       -0.34276
H          5.81922        2.77363       -0.36451
H          4.33306        3.38061        0.40041
H          4.33668        2.98931       -1.32378
C          5.41463        0.24598        0.18691
H          6.06460        0.17383       -0.70465
H          5.02557       -0.75945        0.40718
H          6.07177        0.54953        1.02282
H          2.77139       -0.14627        0.28622
C         -3.06322        1.27170        0.53464
H         -1.98082        0.44141       -1.06483
H         -3.13669        1.99764        1.34935
H         -3.91399        0.59666        0.40584
O         -0.57787        2.58761       -1.57087
H         -1.36755        3.10444       -1.78117
