18
LINDANE.gamout	Energy:   -2991.9373868
Cl        -1.52578        2.68409       -2.04494
Cl        -2.80600        0.28206       -0.24555
Cl         1.21638        1.79632       -3.56643
Cl        -3.13198       -2.50486       -1.91156
Cl         0.89021       -0.98934       -5.23305
Cl        -0.39099       -3.39299       -3.43287
C         -0.93559        0.98320       -2.10302
C         -2.11189        0.02441       -1.88814
C         -0.23160        0.73076       -3.43988
C         -1.68412       -1.43889       -2.03803
C          0.19616       -0.73243       -3.58994
C         -0.98035       -1.69126       -3.37490
H         -0.21460        0.86813       -1.28122
H         -2.91117        0.25223       -2.60783
H         -0.89772        1.00805       -4.26963
H         -1.01802       -1.71636       -1.20833
H          0.99566       -0.96032       -2.87052
H         -1.70147       -1.57620       -4.19655
