65
LOVASTATIN.gamout	Energy:   -1310.6099568
O          2.41834       -0.85118       -0.02413
O         -3.76625        0.73564        0.69697
O         -5.44568       -2.15055        0.50122
O          1.48891       -2.64882        0.97702
O         -5.29227        1.59489        2.03880
C          1.53183        1.35289        0.49902
C          0.34480        1.24137       -0.50343
C          2.02347        0.01628        1.07265
C         -0.03946        2.62899       -1.08558
C         -0.87046        0.49774        0.09627
C          2.70779        2.13475       -0.07061
C          3.19818        0.20816        2.03035
C          4.39884        0.96566        1.43198
C          3.96707        1.94685        0.37711
C         -2.04434        0.25583       -0.87263
C          1.17976        3.36945       -1.56128
C          2.41773        3.12962       -1.09625
C         -0.87168        3.52772       -0.14719
C         -3.30037       -0.29718       -0.20053
C          5.49262        0.03227        0.88734
C         -4.38727       -0.72713       -1.17996
C         -5.66588       -1.10209       -0.43043
C          2.13402       -2.16574        0.07494
C         -6.13043        0.10350        0.36802
C          2.76901       -2.96454       -1.05310
C         -5.04275        0.84860        1.13143
C          1.87599       -4.13472       -1.48575
C          4.14103       -3.47149       -0.57040
C          0.61156       -3.73122       -2.24336
H          1.15788        1.91546        1.37720
H          0.72073        0.65046       -1.35755
H          1.21774       -0.49068        1.61313
H         -0.66580        2.43860       -1.97523
H         -0.54781       -0.48442        0.47593
H         -1.24713        1.04919        0.97346
H          2.80631        0.75840        2.90090
H          3.51151       -0.77602        2.40768
H          4.86255        1.54623        2.25307
H          4.76680        2.55110       -0.06499
H         -2.33618        1.18825       -1.38434
H         -1.73715       -0.44946       -1.66608
H          1.03032        4.15609       -2.30622
H          3.26078        3.71165       -1.48002
H         -1.04181        4.50752       -0.61953
H         -0.34777        3.71415        0.80430
H         -1.85581        3.09393        0.08291
H         -3.04633       -1.16708        0.43099
H          5.86926       -0.63722        1.67688
H          5.10179       -0.58213        0.06377
H          6.34632        0.61016        0.50027
H         -4.01669       -1.58441       -1.76570
H         -4.60133        0.08079       -1.90196
H         -6.45447       -1.38676       -1.15242
H         -6.58705        0.84467       -0.30966
H         -6.90039       -0.18902        1.09380
H          2.92981       -2.27053       -1.89426
H          2.48118       -4.80735       -2.11476
H          1.60652       -4.70594       -0.58185
H         -5.15027       -2.93494        0.02071
H          4.79286       -2.64824       -0.24876
H          4.65309       -4.00500       -1.38422
H          4.02288       -4.16770        0.27546
H         -0.04899       -3.09934       -1.62615
H          0.03027       -4.61856       -2.53844
H          0.85268       -3.17075       -3.16246
