15
M-2HEA+1.gamout	Energy:    -249.7199216
C         -6.98599        0.59983       -0.77222
N         -8.21333       -0.23087       -0.52627
H         -7.12287        1.15987       -1.70603
H         -6.12067       -0.06951       -0.85982
H         -6.84805        1.29138        0.06883
C         -8.51803       -1.23918       -1.60181
H         -9.02603        0.39122       -0.40567
C         -9.77616       -2.04883       -1.29760
H         -7.64858       -1.90645       -1.68844
H         -8.63258       -0.69308       -2.54906
O         -9.87492       -2.94066       -2.36464
H         -9.66490       -2.55889       -0.31554
H        -10.65054       -1.36714       -1.21898
H        -10.66058       -3.49742       -2.27266
H         -8.11606       -0.72137        0.37470
