30
M-DIISOPROPYLBENZENE.gamout	Energy:    -467.4713112
C          0.99151        3.65888        3.97281
C          1.56133        4.01779        2.59124
C          2.01208        5.48616        2.54212
C          2.67313        3.06757        2.17042
C          3.87415        2.98178        2.89552
C          2.52699        2.24958        1.04413
C          4.91253        2.11746        2.53003
C          3.55037        1.37816        0.66031
C          6.19547        2.05639        3.34441
C          4.73290        1.31114        1.39440
C          7.42038        2.47437        2.51744
C          6.40250        0.67349        3.98039
H          0.62744        2.61994        3.99757
H          1.75477        3.76394        4.76156
H          0.15034        4.32195        4.23222
H          0.74467        3.89997        1.85748
H          1.17548        6.16065        2.78719
H          2.38573        5.75577        1.54217
H          2.82088        5.68398        3.26501
H          4.01232        3.61077        3.77998
H          1.60383        2.29437        0.45946
H          3.42283        0.74556       -0.22162
H          6.09165        2.78497        4.16760
H          5.52163        0.62394        1.07838
H          8.32887        2.48222        3.14157
H          7.59950        1.78048        1.67914
H          7.29119        3.48186        2.09192
H          7.30469        0.66682        4.61315
H          6.52723       -0.10770        3.21234
H          5.54341        0.38961        4.60757
