13
M-FLUOROPHENOL.gamout	Energy:    -406.1936131
C          6.33316        1.85407       -0.66906
C          6.86514        0.59940       -0.33412
C          4.95100        2.02644       -0.71721
C          4.07709        0.97016       -0.43728
C          4.63030       -0.26289       -0.10792
C          6.00674       -0.47149       -0.05015
F          3.81787       -1.29448        0.16590
O          8.21533        0.47550       -0.29895
H          7.01986        2.67322       -0.88616
H          4.54227        3.00580       -0.97867
H          2.99332        1.08639       -0.46967
H          6.38747       -1.46111        0.21415
H          8.45369       -0.42910       -0.05751
