17
M-NITROTOLUENE.gamout	Energy:    -475.4543538
C          6.34045        1.89338       -0.59405
C          6.89943        0.63056       -0.33288
C          4.95757        2.08386       -0.62953
C          4.09115        1.01276       -0.40479
C          4.65142       -0.23656       -0.14722
N          3.75222       -1.38730        0.09221
C          6.03060       -0.44303       -0.10835
C          8.39612        0.44710       -0.29169
O          2.55000       -1.18088        0.05223
O          4.26707       -2.47140        0.31484
H          7.00375        2.74393       -0.77372
H          4.55107        3.07657       -0.83547
H          3.00802        1.12371       -0.42583
H          6.40602       -1.44515        0.09724
H          8.86862        0.80568       -1.22091
H          8.84395        1.01716        0.53992
H          8.66966       -0.60906       -0.15871
