17
M-TOLUIDINE.gamout	Energy:    -326.4772133
C          6.32269        1.88151       -0.66077
C          6.84185        0.61732       -0.35980
C          4.93063        2.05718       -0.67394
C          7.24884        3.02609       -0.99488
C          6.00633       -0.48008       -0.07665
C          4.61235       -0.28239       -0.10035
N          6.54698       -1.71179        0.27259
C          4.09137        0.97605       -0.39581
H          7.92698        0.47455       -0.33743
H          4.50644        3.03815       -0.90171
H          8.21275        2.93568       -0.47047
H          7.46918        3.05850       -2.07715
H          6.80338        3.99628       -0.72638
H          3.94300       -1.11819        0.12197
H          5.94369       -2.51776        0.15498
H          7.49808       -1.88743       -0.03061
H          3.00695        1.11573       -0.40748
