18
M-XYLENE.gamout	Energy:    -310.4493848
C          0.85081        3.77682        2.62891
C          1.77177        2.74340        2.02521
C          3.15263        2.77021        2.26646
C          1.26209        1.73077        1.19954
C          4.02699        1.82535        1.70997
C          2.11526        0.78049        0.63725
C          5.51205        1.88793        1.97538
C          3.48753        0.82489        0.88970
H          1.36086        4.37431        3.39927
H         -0.03119        3.30663        3.09422
H          0.47414        4.47695        1.86257
H          3.56244        3.55327        2.91191
H          0.18774        1.68546        0.99821
H          1.70632       -0.00503       -0.00297
H          5.74035        2.50945        2.85429
H          6.05635        2.32019        1.11679
H          5.93296        0.88487        2.15090
H          4.14791        0.07349        0.44745
