12
MALEIC_ACID.gamout	Energy:    -455.1694119
C          1.11109        2.11686        0.95714
C          1.72119        0.92781        1.06969
C          1.73089        3.47027        0.85902
C          3.18301        0.63891        1.14113
O          2.78652        3.64217        1.67360
O          1.29021        4.34276        0.15125
O          3.92631        1.39111        0.31081
O          3.64526       -0.22719        1.84297
H          0.01993        2.14363        0.88801
H          1.10648        0.02790        1.16082
H          3.11674        4.54397        1.51465
H          4.85310        1.13034        0.45417
