11
MALONIC_ACID.gamout	Energy:    -417.1418208
C          2.75901        1.70028        1.43478
C          1.88306        0.57114        0.92330
C          4.24735        1.39809        1.44277
O          2.18474       -0.59567        1.52503
O          1.00344        0.68706        0.11078
O          4.63493        0.79690        0.30176
O          5.00736        1.68423        2.33014
H          2.57319        2.57730        0.79764
H          2.46960        1.94805        2.46633
H          1.58668       -1.26821        1.15554
H          5.59329        0.64430        0.37137
