7
MALONONITRILE.gamout	Energy:    -224.6814875
C          3.37461        0.67996        0.95870
C          2.13900        1.47255        0.89210
C          0.92246        0.65118        0.82330
N          4.35967        0.07519        1.01191
N         -0.04802        0.02344        0.76819
H          2.18054        2.13100        0.00708
H          2.08188        2.12742        1.77890
