19
METHYL_SEC-BUTYL_KETONE.gamout	Energy:    -310.6620625
C          0.25415       -0.33101        0.26891
C          0.44388       -1.59604       -0.59285
C          1.32927        0.73509        0.01839
C          2.75684        0.29862        0.35287
C         -1.14877        0.22845        0.01948
O         -1.33052        1.24774       -0.60967
C         -2.33076       -0.55219        0.58153
H          0.28862       -0.64370        1.33126
H          1.40741       -2.07835       -0.37350
H         -0.34470       -2.34198       -0.40930
H          0.42643       -1.34067       -1.66540
H          1.26180        1.05832       -1.03385
H          1.07121        1.62732        0.61255
H          2.84688       -0.02830        1.40340
H          3.10230       -0.53170       -0.28403
H          3.46129        1.13263        0.20656
H         -2.05258       -1.51043        1.04207
H         -2.82750        0.07366        1.34185
H         -3.06655       -0.72242       -0.21929
