17
METHYL 4-CHLOROBUTYRATE.out Energy: -806.22765901
Cl 0.70453135 3.03687659 0.31124688
O 0.82022853 -2.34595476 -0.28945390
O -1.18089715 -1.86790815 0.61786540
C -1.00705808 0.88203429 -0.08145318
C 0.11390874 -0.09797854 -0.41437989
C -0.73420255 2.30976211 -0.52593251
C -0.18401431 -1.51117378 0.03857284
C 0.65753913 -3.71275039 0.08868179
H -1.94213690 0.55391346 -0.56819005
H -1.20804290 0.86234271 1.00113285
H 1.06143310 0.21859951 0.05218186
H 0.31914474 -0.12765797 -1.49900239
H -1.58402697 2.96572692 -0.29572259
H -0.52507548 2.37158633 -1.60374212
H -0.22481862 -4.15332298 -0.40056096
H 0.53183765 -3.80660210 1.17800190
H 1.56865275 -4.23088574 -0.23513897
