47
METHYL_MYRISTATE.gamout	Energy:    -739.1183043
C          0.40324       -0.92971       -0.18083
O          1.65769       -0.28748       -0.39728
C          1.73184        1.00969       -0.03423
C          3.10779        1.57424       -0.32053
O          0.80546        1.61248        0.44941
C          3.27051        3.03981        0.08186
C          4.66855        3.59514       -0.21765
C          4.85897        5.06922        0.16872
C          6.26320        5.60945       -0.13801
C          6.47841        7.08528        0.22911
C          7.89087        7.59704       -0.08863
C          8.13433        9.07366        0.25737
C          9.55430        9.55653       -0.07128
C          9.82169       11.03323        0.25626
C         11.24559       11.49616       -0.07999
C         11.52340       12.97099        0.23633
C         12.94775       13.41205       -0.10715
H          0.52247       -1.96506       -0.52481
H          0.13078       -0.91184        0.88590
H         -0.39812       -0.43087       -0.74809
H          3.84230        0.92716        0.19135
H          3.30259        1.42706       -1.39817
H          2.50566        3.63993       -0.44029
H          3.04478        3.14596        1.15691
H          5.42468        2.98101        0.30755
H          4.88430        3.47467       -1.29654
H          4.10664        5.68338       -0.36103
H          4.64549        5.19856        1.24656
H          7.01130        4.99050        0.39280
H          6.47339        5.47274       -1.21596
H          5.73526        7.70563       -0.30675
H          6.27016        7.23332        1.30578
H          8.62927        6.97185        0.44835
H          8.09484        7.44157       -1.16519
H          7.40086        9.70022       -0.28466
H          7.93191        9.23994        1.33253
H         10.28397        8.92609        0.47146
H          9.75241        9.38418       -1.14633
H          9.09573       11.66443       -0.29060
H          9.62441       11.21383        1.33009
H         11.97145       10.86483        0.46711
H         11.44133       11.31444       -1.15405
H         10.80108       13.60306       -0.31284
H         11.32888       13.15837        1.30876
H         13.10972       14.47538        0.13039
H         13.69681       12.82837        0.45486
H         13.16293       13.27539       -1.18084
