14
METHYL PROPIONATE.out Energy: -307.47699861
C -0.75259723 1.20441219 0.00000000
C 0.09288043 -0.05310411 0.00000000
O -0.67939823 -1.15880484 0.00000000
O 1.29871749 -0.09044692 0.00000000
C 0.07558821 2.48379817 0.00000000
C 0.00891281 -2.40870214 0.00000000
H -1.42236121 1.15057764 -0.87575221
H -1.42236121 1.15057764 0.87575221
H -0.57696083 3.37009182 0.00000000
H 0.72723280 2.53349428 0.88525163
H 0.72723280 2.53349428 -0.88525163
H -0.76526832 -3.18631755 0.00000000
H 0.64686880 -2.50631445 -0.89196822
H 0.64686880 -2.50631445 0.89196822
