15
METHYL_ISOPROPYL_ETHER.gamout	Energy:    -233.3316290
O          1.80158        2.17182        2.71319
C          1.67469        3.48108        2.22250
C          2.09358        1.13533        1.78015
C          3.47147        1.29623        1.13170
C          0.98067        0.93247        0.74846
H          1.46608        4.12855        3.08763
H          0.84047        3.59780        1.50301
H          2.59675        3.85526        1.73543
H          2.12663        0.23582        2.41846
H          3.74585        0.38061        0.58389
H          4.23737        1.47828        1.90149
H          3.49918        2.13054        0.41122
H          0.00323        0.85456        1.24938
H          1.15101        0.00318        0.18165
H          0.92979        1.75653        0.01741
