13
METHYL_ETHYL_KETONE.gamout	Energy:    -232.1503224
C          1.78915        1.41569        2.83961
C          0.83544        2.60440        2.63640
C          2.38318        0.95018        1.51511
C          3.69311        1.58522        1.08732
O          1.81367        0.13307        0.82566
H          2.59116        1.69321        3.54404
H          1.23414        0.56470        3.26422
H          0.02028        2.33394        1.94728
H          0.38666        2.91062        3.59366
H          1.35755        3.48078        2.21784
H          3.99252        1.20047        0.10384
H          3.59251        2.68327        1.04279
H          4.48100        1.37096        1.82936
