14
METHYLETHANOLAMINE.gamout	Energy:    -249.3496992
C         -1.48875        0.11908        0.26059
C         -0.02412        0.50494        0.11205
C         -3.76726        0.98147        0.15991
N         -2.34866        1.28302        0.15793
H         -4.02863        0.39601       -0.73863
H         -4.34949        1.91594        0.12088
H         -4.11668        0.39700        1.04156
H         -1.61113       -0.45232        1.20943
H         -1.74119       -0.58350       -0.55322
H         -2.13641        1.93696        0.91146
O          0.75050       -0.67330        0.19162
H          0.24852        1.22744        0.91275
H          0.10554        1.03287       -0.85383
H          1.67784       -0.44208        0.05939
