19
METHYL_SALICYLATE.gamout	Energy:    -534.6573095
O          1.82540        2.26655        3.12434
C          2.45068        1.42364        2.26525
O          1.84255        0.77099        1.45155
C          3.92763        1.43020        2.47336
C          0.40867        2.32854        3.00674
C          4.78947        0.64860        1.66414
C          4.49735        2.21984        3.48851
O          4.28080       -0.11871        0.68014
C          6.17442        0.68579        1.89849
C          5.86981        2.24953        3.71441
C          6.71143        1.47499        2.91061
H         -0.04668        1.34317        3.19313
H          0.07040        3.05088        3.76079
H          0.11075        2.66092        2.00009
H          3.82747        2.81823        4.10521
H          5.00630       -0.57600        0.23299
H          6.83041        0.07837        1.26692
H          6.28190        2.87194        4.51048
H          7.79247        1.48385        3.07061
