20
METHYL_PIVALATE.out Energy: -386.04706693
O 0.61244462 -1.35491923 0.00000000
O -1.56400461 -0.81312114 0.00000000
C 0.09782563 0.97935664 0.00000000
C 0.95571395 1.20761805 -1.26328401
C -1.11278456 1.92336467 0.00000000
C 0.95571395 1.20761805 1.26328401
C -0.40678968 -0.47011631 0.00000000
C 0.25466681 -2.73578416 0.00000000
H 0.36795891 1.03886673 -2.18005933
H 1.32243437 2.24651232 -1.28566875
H 1.82404625 0.53354200 -1.28287582
H -1.74436793 1.76236338 -0.88615194
H -0.77343427 2.97130792 0.00000000
H -1.74436793 1.76236338 0.88615194
H 1.82404625 0.53354200 1.28287582
H 1.32243437 2.24651232 1.28566875
H 0.36795891 1.03886673 2.18005933
H -0.33904420 -2.98773928 -0.89189927
H -0.33904420 -2.98773928 0.89189927
H 1.19712759 -3.29751060 0.00000000
