41
METHYL_DODECANOATE.gamout	Energy:    -660.6045381
C          1.45011       -0.22985        0.05361
C          2.95379       -0.00476        0.22606
C          3.38062        1.46208        0.09612
C          4.88877        1.68481        0.26962
C          5.33829        3.14689        0.14476
C          6.85020        3.34383        0.32486
C          7.32581        4.79860        0.20833
C          8.84000        4.96843        0.39793
C          9.33909        6.41627        0.29043
C         10.85345        6.55880        0.48850
C         11.35241        8.01009        0.38371
C         12.84472        8.15764        0.59061
O         13.54034        7.45383       -0.32722
O         13.37489        8.81203        1.45477
C         14.96086        7.51600       -0.21987
H          1.19009       -1.29553        0.15464
H          1.10402        0.10523       -0.93903
H          0.86984        0.32723        0.80904
H          3.50409       -0.60855       -0.51929
H          3.27249       -0.38754        1.21337
H          2.83137        2.06708        0.84260
H          3.06340        1.84679       -0.89197
H          5.43324        1.07457       -0.47596
H          5.20016        1.29461        1.25735
H          4.79790        3.75916        0.89149
H          5.03189        3.54090       -0.84298
H          7.38770        2.72710       -0.42040
H          7.15055        2.94495        1.31266
H          6.79241        5.41693        0.95501
H          7.03195        5.20244       -0.77933
H          9.37239        4.34705       -0.34684
H          9.12751        4.56070        1.38595
H          8.81173        7.04061        1.03607
H          9.06013        6.82895       -0.69792
H         11.38893        5.94543       -0.25579
H         11.13284        6.15513        1.47909
H         10.86547        8.65427        1.13040
H         11.11227        8.41408       -0.61617
H         15.31609        8.55353       -0.31798
H         15.35896        6.89786       -1.03449
H         15.29937        7.12866        0.75377
