22
METHYL_AMYL_KETONE.gamout	Energy:    -349.9154376
O         -2.95932        2.68939        0.00001
C          1.19249        0.03364       -0.00002
C         -0.34249        0.01434       -0.00006
C          1.83354       -1.35890        0.00001
C         -0.95846        1.41561       -0.00001
C          3.36293       -1.32765        0.00003
C         -2.48261        1.57562       -0.00001
C         -3.40140        0.36136        0.00003
H          1.54886        0.59864        0.88210
H          1.54896        0.59865       -0.88213
H         -0.69333       -0.54996       -0.88334
H         -0.69337       -0.55005        0.88317
H          1.47726       -1.92300       -0.88178
H          1.47725       -1.92305        0.88178
H         -0.60650        1.99373       -0.87380
H         -0.60662        1.99365        0.87388
H          3.78466       -2.34509        0.00000
H          3.75515       -0.80524       -0.88919
H          3.75516       -0.80530        0.88929
H         -4.05883        0.42557       -0.88218
H         -4.05872        0.42561        0.88231
H         -2.88941       -0.60845        0.00002
