55
METHYL_LINOLEATE.gamout	Energy:    -893.6721706
C         -3.54022       -1.16715        0.03337
O         -2.12482       -1.23723       -0.00265
H         -2.83753      -11.40145       -0.83559
H         -3.79589       -0.09871        0.03389
H         -4.00402       -1.63745       -0.85031
H         -3.95861       -1.62725        0.94470
C         -1.44984       -2.41537       -0.01445
O         -0.24862       -2.39153       -0.04665
C         -2.26784       -3.69873        0.01374
C         -1.77635      -13.91549        0.01022
H         -0.21034      -12.51779       -0.03128
C         -1.40025       -4.95800       -0.00422
H         -2.91604       -3.68437        0.90908
H         -2.96285       -3.69359       -0.84597
C         -2.21460       -6.25690        0.02256
H         -0.75645       -4.93061       -0.89947
H         -0.70833       -4.92344        0.85413
C         -1.35555       -7.52927        0.00213
H         -2.85899       -6.26933        0.92248
H         -2.90642       -6.27557       -0.84140
C         -2.16833       -8.83171        0.02588
H         -0.71239       -7.51746       -0.89777
H         -0.66379       -7.51468        0.86523
C         -1.31772      -10.10759        0.00278
H         -2.81250       -8.84257        0.92562
H         -2.86015       -8.84406       -0.83786
C         -2.14182      -11.40230        0.02500
H         -0.67471      -10.10375       -0.89726
H         -0.62566      -10.10433        0.86574
C         -1.30003      -12.66439       -0.00077
H         -2.78848      -11.40340        0.92301
C         -0.93985      -15.18118       -0.01656
H         -2.86625      -14.05758        0.04099
C         -1.74947      -16.46438        0.00480
H         -0.46862      -22.81964        0.84838
C         -1.24609      -17.70493       -0.01125
H         -1.32362      -25.01547       -0.00726
H         -2.60149      -24.19380        0.91769
H         -2.65204      -24.19550       -0.85961
H         -0.51852      -22.82116       -0.91377
C         -2.05951      -18.98550        0.01101
H         -0.23859      -15.17556        0.83978
H         -2.84209      -16.34586        0.03644
C         -1.20564      -20.26159       -0.01348
H         -2.70557      -19.00063        0.90929
H         -2.75530      -19.00004       -0.84936
C         -2.01772      -21.56204        0.00960
H         -0.56264      -20.24778       -0.91354
H         -0.51336      -20.24810        0.84937
C         -1.16090      -22.83372       -0.01381
H         -2.66073      -21.57359        0.91032
H         -2.71033      -21.57463       -0.85361
C         -1.97677      -24.12824        0.01053
H         -0.28994      -15.17206       -0.91247
H         -0.15334      -17.82638       -0.04261
