11
METHYL_TRICHLOROACETATE.out Energy: -1646.55487530
Cl 1.28519091 -1.69761579 0.00000000
Cl -1.04601010 -0.72524039 1.47173579
Cl -1.04601010 -0.72524039 -1.47173579
O -0.43927659 1.82324013 0.00000000
O 1.71603144 1.17825316 0.00000000
C -0.03743193 -0.51518004 0.00000000
C 0.54376428 0.92973905 0.00000000
C -0.04259065 3.19959475 0.00000000
H 0.55535649 3.42789639 0.89461333
H -0.97196774 3.78077294 0.00000000
H 0.55535649 3.42789639 -0.89461333
