14
METHYLCYCLOPENTADIENE.gamout	Energy:    -233.0937204
C          1.15988        0.33687        0.00191
C          0.71562       -0.94444        0.00070
C         -0.75226       -0.96256       -0.00050
C         -1.21601        0.30756        0.00000
C         -0.04344        1.25155        0.00160
C          2.57186        0.82947        0.00339
H          1.34766       -1.83545        0.00067
H         -1.35951       -1.87013       -0.00161
H         -2.25945        0.62467       -0.00069
H         -0.04784        1.92137       -0.88074
H         -0.04926        1.92012        0.88488
H          3.28855       -0.00537        0.00339
H          2.78367        1.45580        0.88907
H          2.78508        1.45700       -0.88110
