9
METHANESULFONIC_ACID.out Energy: -663.98751882
S 0.11488557 0.11489503 -0.09458208
O -0.76010182 0.55912723 1.22827179
O -0.51156690 0.75632701 -1.24832369
O 1.52160301 0.29840152 0.21471248
C -0.24100723 -1.64047311 -0.11063158
H 0.08850074 -2.06619990 0.84536781
H -1.31784102 -1.78005892 -0.26572874
H 0.33402271 -2.06809006 -0.94291460
H -1.40924653 1.21656447 0.92367512
