8
METHYLDICHLOROSILANE.gamout	Energy:   -1249.9335479
Cl         0.75381        0.01170        0.57590
Cl         3.48659        1.68320        1.66980
Si         2.81408        0.20239        0.37510
C          3.63672       -1.41812        0.79827
H          3.40123       -1.71289        1.83269
H          3.28582       -2.21261        0.11975
H          4.73084       -1.32929        0.69958
H          3.08889        0.65869       -1.00794
