18
METHYL_SEC-BUTYL_ETHER.gamout	Energy:    -272.5919419
C         -0.03663       -0.43363        0.28213
C         -0.66932       -1.80980        0.06283
C          1.41983       -0.38749       -0.17810
C          2.11442        0.94367        0.10624
O         -0.72773        0.58417       -0.42747
C         -1.93449        1.00992        0.14109
H         -0.07040       -0.19615        1.36866
H         -0.63581       -2.08331       -1.00444
H         -0.13222       -2.58223        0.63640
H         -1.72122       -1.83231        0.38741
H          1.96490       -1.21319        0.31146
H          1.43883       -0.59765       -1.26245
H          1.58154        1.77228       -0.38378
H          2.14537        1.15748        1.18854
H          3.15282        0.93914       -0.26107
H         -2.70879        0.21740        0.16251
H         -1.79891        1.37758        1.17961
H         -2.31519        1.83980       -0.47258
