18
METHYL_TERT-BUTYL_SULFIDE.gamout	Energy:    -595.4879127
S          1.84029        2.58051        1.99788
C          1.07425        1.13489        2.80055
C          3.64517        2.12246        1.86267
C          4.25616        1.89759        3.24882
C          3.82628        0.88524        0.97834
C          4.28855        3.34605        1.19648
H          0.00330        1.37421        2.88512
H          1.17468        0.21857        2.19865
H          1.46894        0.95835        3.81279
H          3.80181        1.03701        3.76383
H          5.33704        1.68982        3.15919
H          4.12800        2.78525        3.88642
H          3.38920        1.04439       -0.01897
H          4.90000        0.65918        0.85345
H          3.35574       -0.00669        1.42042
H          5.37116        3.17907        1.06454
H          3.85076        3.53714        0.20428
H          4.15641        4.25067        1.81031
