24
METHYLCYCLOHEPTANE.gamout	Energy:    -314.0382350
C          5.05177        4.25101        1.91208
C          3.88909        3.25346        1.80970
C          3.70031        2.50693        3.14615
C          2.60310        3.98820        1.38649
C          3.08385        1.09773        3.08162
C          1.40678        3.12811        0.96122
C          1.92026        0.88503        2.09762
C          0.93683        2.05457        1.95149
H          5.99595        3.74365        2.16840
H          4.85809        5.00494        2.69581
H          5.20751        4.79147        0.96429
H          4.15018        2.51800        1.02354
H          3.09004        3.14880        3.80741
H          4.67643        2.41738        3.65077
H          2.84206        4.66475        0.54809
H          2.29885        4.64420        2.22485
H          2.74835        0.83480        4.10025
H          3.87479        0.36811        2.83437
H          1.64394        2.62793        0.00310
H          0.56429        3.80654        0.74446
H          1.37381       -0.01957        2.41121
H          2.31932        0.65149        1.09388
H         -0.02741        1.66060        1.58949
H          0.72435        2.50743        2.93813
