11
METHYL_ACETATE.gamout	Energy:    -268.0422314
O          2.36226        2.46949        0.98307
C          1.98050        1.17608        0.95540
C          0.47790        1.05356        1.01148
O          2.76019        0.25875        0.88935
C          3.76798        2.70675        0.92669
H          0.08409        1.59721        1.88372
H          0.03219        1.51088        0.11386
H          0.19968       -0.00565        1.06559
H          4.19908        2.29495        0.00096
H          4.27971        2.23798        1.78157
H          3.89729        3.79611        0.95591
