11
METHYL_DICHLOROACETATE.out Energy: -1187.10258092
Cl 1.47160160 1.15155978 -0.57620411
Cl -1.18367857 1.79086787 0.59452107
O 0.25466280 -1.74081922 0.52471057
O -1.22852186 -0.85827872 -0.92673862
C 0.12622745 0.59609177 0.48328201
C -0.39339659 -0.73450448 -0.07559065
C -0.05949538 -3.05911281 0.06211574
H 0.55033090 0.45477840 1.48227446
H 0.54477854 -3.74531459 0.66710932
H 0.19148992 -3.16374854 -1.00405558
H -1.13098919 -3.26969412 0.19394931
