16
METHYLGLUTARONITRILE.gamout	Energy:    -342.4634055
C         52.99693       30.01796       -0.03263
C         51.68979       29.19580       -0.03570
C         50.85308       29.53948       -1.19619
C         51.95860       27.68048        0.00769
C         52.76195       31.53951       -0.01690
N         50.20778       29.82069       -2.11687
C         54.01020       32.30403        0.04383
N         55.00671       32.89282        0.09498
H         53.57574       29.72527        0.85718
H         53.60300       29.74572       -0.91201
H         51.10601       29.47360        0.86105
H         51.01630       27.11438        0.03256
H         52.53745       27.42684        0.90857
H         52.53048       27.35545       -0.87511
H         52.20579       31.85534       -0.91583
H         52.14244       31.82568        0.85103
