28
METHYL-N-HEPTYL KETONE.out Energy: -428.72750600
O 1.34725910 3.62637911 0.00000000
C 0.42270468 -1.54351353 0.00000000
C -0.48106246 -0.30659887 0.00000000
C -0.34185452 -2.87031416 0.00000000
C 0.29029275 1.01587294 0.00000000
C 0.55824570 -4.11022081 0.00000000
C -0.61212237 2.24716318 0.00000000
C -0.21739324 -5.42839041 0.00000000
C 0.13695044 3.57481484 0.00000000
C -0.71367220 4.83397886 0.00000000
H 1.09008756 -1.50555441 0.88094974
H 1.09008756 -1.50555441 -0.88094974
H -1.14905090 -0.34416401 -0.88120855
H -1.14905090 -0.34416401 0.88120855
H -1.00978794 -2.90659539 -0.88120691
H -1.00978794 -2.90659539 0.88120691
H 0.95901723 1.06166573 0.87628839
H 0.95901723 1.06166573 -0.87628839
H 1.22523530 -4.07472328 0.88074317
H 1.22523530 -4.07472328 -0.88074317
H -1.28969359 2.24256303 -0.87518757
H -1.28969359 2.24256303 0.87518757
H -0.86599462 -5.51206254 -0.88833906
H -0.86599462 -5.51206254 0.88833906
H 0.45928973 -6.29784232 0.00000000
H -0.06522041 5.71988914 0.00000000
H -1.37080724 4.85634960 0.88529700
H -1.37080724 4.85634960 -0.88529700
