53
METHYL_HEXADECANOATE.gamout	Energy:    -817.6057701
C          2.08212        0.21879       -0.70299
O          3.33698        0.00287       -0.08167
C          3.57050       -0.40936        1.18646
C          2.47139       -0.73252        2.21732
O          4.71896       -0.53297        1.52376
C          0.95738       -0.63653        1.99262
C          0.16971       -1.05006        3.24679
C         -1.35270       -0.97219        3.07173
C         -2.15054       -1.39338        4.31347
C         -3.67316       -1.31714        4.13363
C         -4.47455       -1.74708        5.37021
C         -5.99704       -1.67353        5.18733
C         -6.80004       -2.11098        6.42044
C         -8.32277       -2.04084        6.23627
C         -9.12579       -2.48423        7.46731
C        -10.64856       -2.41735        7.28297
C        -11.45104       -2.86419        8.51181
C        -12.97141       -2.79853        8.32508
C        -13.76096       -3.24769        9.55634
H          2.31129        0.54484       -1.72679
H          1.50032        1.01214       -0.20904
H          1.47645       -0.69876       -0.75888
H          2.75053       -0.10783        3.08329
H          2.72693       -1.75807        2.53593
H          0.64548       -1.28340        1.15583
H          0.66691        0.39137        1.71797
H          0.47484       -0.41251        4.09790
H          0.45390       -2.08135        3.52913
H         -1.65124       -1.60741        2.21623
H         -1.63397        0.06032        2.79005
H         -1.85241       -0.76139        5.17135
H         -1.86857       -2.42667        4.59123
H         -3.96802       -1.94747        3.27319
H         -3.95581       -0.28349        3.85728
H         -4.18028       -1.11930        6.23264
H         -4.19130       -2.78131        5.64361
H         -6.28873       -2.30031        4.32321
H         -6.28164       -0.63927        4.91523
H         -6.50888       -1.48604        7.28604
H         -6.51467       -3.14560        6.69026
H         -8.61197       -2.66524        5.36957
H         -8.60966       -1.00636        5.96740
H         -8.83673       -1.86094        8.33483
H         -8.83799       -3.51888        7.73456
H        -10.93657       -3.04047        6.41493
H        -10.93778       -1.38291        7.01639
H        -11.16544       -2.24184        9.38137
H        -11.16372       -3.89926        8.77859
H        -13.25786       -3.42079        7.45688
H        -13.26113       -1.76481        8.05949
H        -13.52625       -4.29161        9.82620
H        -14.84668       -3.18596        9.38177
H        -13.52875       -2.62090       10.43428
