17
METHYL_NICOTINATE.gamout	Energy:    -475.5485413
O          2.06312        0.78616       -0.00041
O          1.87263       -1.45448       -0.00061
N         -1.99412        1.38253        0.00011
C         -0.11195       -0.12050       -0.00024
C         -0.97170       -1.22542       -0.00038
C         -0.67875        1.16396       -0.00002
C          1.35900       -0.35960       -0.00044
C         -2.34511       -1.00277       -0.00020
C         -2.80287        0.31950        0.00002
C          3.48324        0.64956       -0.00054
H         -0.54278       -2.22950       -0.00058
H         -0.02683        2.04206        0.00007
H         -3.05453       -1.83259       -0.00028
H         -3.87933        0.52733        0.00014
H          3.82150        0.10207       -0.89345
H          3.82160        0.10186        0.89219
H          3.88941        1.66866       -0.00045
