16
METHYL_ISOPROPYL_KETONE.gamout	Energy:    -271.4080389
C          1.97908        2.19630        2.55386
C          3.24385        2.10184        1.69207
C          4.48210        1.85647        2.55648
C          3.04613        0.97708        0.65837
C          0.89404        3.14461        2.07981
O          1.84750        1.52593        3.55435
H          3.35474        3.05400        1.14264
H          4.33884        0.96102        3.17992
H          4.67419        2.70358        3.23368
H          5.37531        1.71298        1.92876
H          2.16957        1.15236        0.01406
H          2.90526        0.00896        1.16592
H          3.92905        0.89581        0.00542
H          0.68670        3.01139        1.00540
H          1.23703        4.18621        2.20992
H         -0.02172        2.99019        2.66527
