11
MONOETHANOLAMINE.gamout	Energy:    -210.1002030
C         -0.95950        0.03530        1.40660
C         -0.84585       -1.41337        1.86235
N          0.54743       -1.84592        1.85847
H         -1.41489       -2.03647        1.15167
H         -1.36523       -1.50553        2.84057
H          1.05333       -1.42081        2.63727
H          0.60617       -2.85301        2.00468
O         -2.32424        0.39899        1.43875
H         -0.52254        0.12132        0.39165
H         -0.34748        0.67751        2.07744
H         -2.40779        1.31032        1.13330
