15
MORPHOLINE.gamout	Energy:    -287.4074885
C         -5.17752        1.94606        1.66231
C         -5.44199        2.44880        0.24524
N         -3.96574        1.13817        1.65344
O         -5.53739        1.37276       -0.66887
C         -4.36529        0.58050       -0.67124
C         -4.07287        0.02519        0.72027
H         -5.04087        2.80601        2.33891
H         -6.07546        1.38314        2.00685
H         -4.62356        3.13638       -0.05386
H         -6.39561        2.99613        0.19415
H         -3.73489        0.81261        2.58950
H         -4.53267       -0.23483       -1.39193
H         -3.49559        1.18023       -1.01105
H         -4.88164       -0.69304        0.98904
H         -3.12251       -0.53322        0.70152
