24
N-(2-AMINOETHYL)PIPERAZINE.gamout	Energy:    -401.3415686
N          0.06621        0.11536       -0.08695
N         -2.74695       -0.22310        0.15871
N          3.81896       -0.10599       -0.00299
C         -0.50225       -1.11400        0.45214
C         -0.81134        1.25094        0.16613
C         -1.89335       -1.36594       -0.12259
C         -2.20111        0.99863       -0.41136
C          1.43671        0.35380        0.33074
C          2.47139       -0.51280       -0.39296
H         -0.57459       -1.06986        1.56486
H          0.15210       -1.96179        0.19878
H         -0.37708        2.14886       -0.30250
H         -0.91252        1.45833        1.25760
H         -1.78547       -1.57123       -1.21250
H         -2.32087       -2.26686        0.34696
H         -2.85839        1.84665       -0.15946
H         -2.11194        0.95754       -1.52129
H          1.69226        1.40336        0.11704
H          1.55677        0.22733        1.43491
H         -3.69511       -0.38654       -0.17217
H          2.25757       -1.58872       -0.21270
H          2.34915       -0.35287       -1.47736
H          3.98968       -0.34342        0.97588
H          4.51722       -0.61989       -0.54039
