19
N-ACETYLCYSTEINE.out Energy: -874.13804587
N -0.41901153 -0.65005727 0.47981550
C 0.17123692 0.50754598 -0.14289287
C -0.73198503 1.73366418 0.02880614
C 1.58148517 0.81961813 0.38681671
C -1.12506917 -1.57845663 -0.25895038
O -0.28054892 2.78543827 -0.67778713
O -1.71684707 1.77403852 0.72053436
S 2.65482630 -0.66788492 0.23482007
C -1.87400883 -2.60449383 0.57239095
O -1.13869961 -1.56904671 -1.47476990
H -0.61112554 -0.59066974 1.47407384
H 0.22802524 0.28408089 -1.22005845
H 2.00444339 1.64750002 -0.19726575
H 1.52933124 1.13615854 1.44206085
H -0.89323982 3.52430692 -0.51741925
H 3.82208308 0.00159475 0.37604037
H -1.25798234 -2.98583941 1.40147107
H -2.77846342 -2.14336840 1.00304483
H -2.17744045 -3.43395267 -0.07783062
