14
N-BUTYRIC_ACID.gamout	Energy:    -307.3032105
C          1.97204        0.93397        0.78445
C          2.97499       -0.00907        1.43806
C          0.64725        1.02823        1.53779
O          4.16663       -0.11644        0.79930
O          2.77191       -0.63228        2.44254
C         -0.35312        1.97496        0.87610
H          2.44726        1.93007        0.69786
H          1.81025        0.59121       -0.25570
H          0.21995        0.01573        1.62407
H          0.85452        1.34939        2.57177
H          4.17850        0.44367        0.01037
H         -0.60339        1.65179       -0.14902
H         -1.29341        2.01750        1.44696
H          0.04100        3.00367        0.81075
