41
N-BUTYL_NONANOATE.gamout	Energy:    -660.6110190
C         87.12993        0.26689       -0.62617
C         88.47110        0.94755       -0.32964
C         85.93150        0.94915        0.04602
C         89.66479        0.27214       -1.00295
C         90.98573        0.95136       -0.70550
O         92.00368        0.31915       -1.32457
C         93.32567        0.84929       -1.13784
O         91.12667        1.93065       -0.01362
C         82.03789        0.30794        0.13425
C         83.38785        0.97136        0.42509
C         80.85395        1.00621        0.80558
C         84.58176        0.28176       -0.24528
C         96.18145        0.11236        1.43102
C         95.46145        0.72059        0.22701
C         94.01814        0.23364        0.07220
H         86.96586        0.23964       -1.72036
H         87.17417       -0.79178       -0.30612
H         88.64636        0.97990        0.75946
H         88.43452        2.00365       -0.64820
H         86.09617        0.97847        1.13966
H         85.89069        2.00692       -0.27619
H         89.54827        0.24452       -2.10100
H         89.75849       -0.78555       -0.69855
H         93.86596        0.60418       -2.06534
H         93.26201        1.94319       -1.03511
H         81.87512        0.27788       -0.95915
H         82.07364       -0.74865        0.45913
H         83.55015        1.00135        1.51944
H         83.34943        2.02918        0.10154
H         79.90350        0.50040        0.57299
H         80.96344        1.01982        1.90347
H         80.76272        2.05421        0.47233
H         84.41758        0.25351       -1.33932
H         84.61895       -0.77637        0.07723
H         97.21304        0.48920        1.51116
H         95.66301        0.35555        2.37367
H         96.23351       -0.98720        1.35720
H         96.02605        0.48841       -0.69493
H         95.46708        1.82231        0.31503
H         93.44082        0.48318        0.97904
H         93.99787       -0.86628       -0.02812
