20
N-BUTYL_ACETATE.gamout	Energy:    -385.8160697
O          4.04798       -0.14189       -1.74196
C          3.37564        0.14254       -2.97670
C          4.75683        0.86513       -1.19448
C          2.64091       -1.11033       -3.41916
C          5.41907        0.42617        0.08823
O          4.83602        1.96422       -1.68539
C          1.88616       -0.91445       -4.73744
C          1.13772       -2.16507       -5.20013
H          4.11913        0.46734       -3.72481
H          2.68508        0.99023       -2.82840
H          3.36695       -1.93640       -3.51995
H          1.93754       -1.41198       -2.62235
H          6.08313       -0.43058       -0.10475
H          5.99187        1.26068        0.50983
H          4.65704        0.08838        0.80780
H          1.17382       -0.07658       -4.62827
H          2.59995       -0.60089       -5.52138
H          0.38614       -2.48236       -4.45731
H          0.61014       -1.98551       -6.14982
H          1.82626       -3.01268       -5.35548
