17
N-BUTYL_FORMATE.gamout	Energy:    -346.5409549
C          2.39922        0.59594        0.09373
C          3.88882        0.30785        0.13683
O          4.07215       -1.10952        0.25062
C          2.08930        2.09061       -0.02537
C          5.32853       -1.57574        0.31008
C          0.59124        2.39347       -0.06873
O          5.59074       -2.73791        0.40798
H          1.95937        0.04515       -0.75595
H          1.93608        0.18066        1.00578
H          4.36013        0.81325        0.99991
H          4.38559        0.67559       -0.78007
H          2.55027        2.62727        0.82415
H          2.57285        2.49296       -0.93453
H          6.09936       -0.76579        0.25897
H          0.40378        3.47517       -0.15462
H          0.10702        1.90156       -0.92904
H          0.08264        2.03857        0.84343
