19
N-CAPROYL_CHLORIDE.gamout	Energy:    -770.0801081
C         35.05271       30.08903       -0.00021
C         36.33048       29.24765        0.00002
C         35.30607       31.57684        0.00003
C         36.05377       27.74008       -0.00014
Cl        33.74874       32.52214       -0.00015
O         36.34897       32.13841        0.00034
C         37.32609       26.88435        0.00011
C         37.05042       25.37978       -0.00001
H         34.41550       29.87451       -0.87642
H         34.41514       29.87432        0.87569
H         36.93822       29.51801        0.88051
H         36.93870       29.51809       -0.88012
H         35.44008       27.47852       -0.88288
H         35.43970       27.47835        0.88229
H         37.93874       27.14659        0.88203
H         37.93923       27.14661       -0.88147
H         37.98760       24.80087        0.00022
H         36.47252       25.07504       -0.88903
H         36.47205       25.07494        0.88868
