32
N-DECANOIC_ACID.gamout	Energy:    -542.8483542
C          4.38235        2.13832        1.51725
C          5.48945        1.16762        1.08234
C          3.33043        2.42388        0.43915
C          6.53189        0.89683        2.17539
C          2.24241        3.40156        0.91692
C          7.64952       -0.07283        1.76636
C          1.19184        3.71270       -0.12529
C          8.68110       -0.33091        2.87166
O          0.53590        2.60166       -0.53103
O          0.93717        4.80536       -0.56743
C          9.80136       -1.30087        2.47831
C         10.81754       -1.54481        3.59514
H          4.84093        3.09316        1.83645
H          3.87666        1.73523        2.41527
H          5.03329        0.21080        0.76547
H          5.99727        1.56910        0.18489
H          2.85109        1.48330        0.11895
H          3.82308        2.84179       -0.45754
H          6.01909        0.50095        3.07274
H          6.98181        1.85752        2.49036
H          1.72208        2.97383        1.79268
H          2.67731        4.36410        1.22353
H          8.16657        0.32048        0.87037
H          7.20200       -1.03552        1.45404
H          8.16241       -0.72197        3.76800
H          9.12790        0.63240        3.18378
H         -0.10915        2.89186       -1.19882
H          9.35578       -2.26451        2.16852
H         10.32350       -0.91292        1.58384
H         10.33515       -1.96987        4.49214
H         11.31121       -0.60674        3.90175
H         11.60535       -2.24640        3.27858
