45
N-DECYLCYCLOPENTANE.gamout	Energy:    -588.8224488
C          4.86127        2.59855        3.25705
C          3.34163        2.64550        3.04456
C          2.88042        2.19108        1.64667
C          5.33318        2.91997        4.68487
C          1.34722        2.10742        1.50942
C          3.23462        3.18497        0.52316
C          5.07684        4.36557        5.12835
C          0.88169        3.54417        1.18283
C          2.11638        4.25071        0.55665
C          5.73084        4.80709        6.44713
C          5.22670        4.12808        7.73650
C          5.96544        2.85048        8.15924
C          5.44315        2.25669        9.47323
C          6.10932        0.94427        9.91342
C          7.59131        1.06489       10.27515
H          5.22148        1.59046        2.98279
H          5.36013        3.29197        2.55550
H          2.86048        1.99529        3.79819
H          2.96531        3.66448        3.24846
H          3.33379        1.20413        1.44925
H          4.85678        2.21369        5.38861
H          6.41786        2.71969        4.74561
H          0.85931        1.69000        2.40390
H          1.10393        1.43423        0.67046
H          4.24199        3.61580        0.62341
H          3.21476        2.65073       -0.44156
H          3.98955        4.55184        5.19558
H          5.44296        5.03883        4.33165
H          0.01630        3.54007        0.50235
H          0.55040        4.06797        2.09438
H          2.41594        5.11945        1.16492
H          1.90626        4.64171       -0.45043
H          6.82868        4.68963        6.37375
H          5.56023        5.89218        6.54365
H          4.14411        3.91895        7.64108
H          5.30793        4.85485        8.56416
H          5.89354        2.08674        7.36531
H          7.04142        3.08317        8.25403
H          5.55265        3.00512       10.28169
H          4.35633        2.08242        9.37615
H          5.55904        0.55187       10.78632
H          5.98389        0.18506        9.11889
H          7.99194        0.10320       10.63315
H          8.20572        1.37354        9.41353
H          7.74822        1.80811       11.07591
