38
N-DODECANE.gamout	Energy:    -472.2694004
C          3.52483        1.92866        6.82103
C          2.15668        1.40033        7.27306
C          2.17133        0.71196        8.64464
C          3.50988        2.61715        5.44943
C          0.80316        0.18278        9.09598
C          4.87774        3.14707        4.99746
C          0.81541       -0.50815       10.46562
C          4.86498        3.83821        3.62782
C         -0.55236       -1.03818       10.91153
C          6.23247        4.36891        3.18178
C         -0.52877       -1.72897       12.27643
C          6.20842        5.06007        1.81708
H          4.24893        1.09208        6.80120
H          3.90932        2.63704        7.57938
H          1.77237        0.69177        6.51480
H          1.43241        2.23677        7.29271
H          2.55597        1.42022        9.40300
H          2.89562       -0.12447        8.62418
H          2.78522        3.45325        5.47004
H          3.12543        1.90873        4.69110
H          0.41966       -0.52498        8.33648
H          0.07849        1.01891        9.11620
H          5.60265        2.31115        4.97680
H          5.26137        3.85481        5.75694
H          1.19757        0.19752       11.22794
H          1.53903       -1.34546       10.44562
H          4.14097        4.67517        3.64797
H          4.48309        3.13242        2.86545
H         -1.27649       -0.20258       10.93258
H         -0.93331       -1.74339       10.14942
H          6.95687        3.53355        3.16032
H          6.61337        5.07402        3.94401
H          0.15698       -2.59343       12.27738
H         -1.52803       -2.09659       12.55789
H         -0.19097       -1.04113       13.07056
H          5.87060        4.37232        1.02290
H          7.20758        5.42789        1.53555
H          5.52256        5.92446        1.81638
