62
N-EICOSANOIC_ACID.gamout	Energy:    -935.4016573
C         -0.11736       -0.41813       -0.21933
C          1.17143        0.38982       -0.05602
O         11.47292       22.12613        0.84836
C         11.24041       21.26521        0.04650
O         12.15655       20.95820       -0.90643
C          9.94781       20.45892       -0.00395
C         10.13617       18.93376        0.08426
C          8.81232       18.15751        0.06599
C          8.98264       16.63469        0.15628
C          7.66118       15.85441        0.10217
C          7.83200       14.33156        0.19171
C          6.51656       13.54469        0.10228
C          6.69330       12.02238        0.19107
C          5.38465       11.22724        0.07644
C          5.56813        9.70539        0.16467
C          4.26501        8.90340        0.03339
C          4.45400        7.38191        0.12137
C          3.15505        6.57499       -0.02068
C          3.34831        5.05370        0.06769
C          2.05363        4.24184       -0.08164
C          2.25354        2.72248        0.00811
C          0.96410        1.90604       -0.14678
H          0.07416       -1.50096       -0.15089
H         -0.85657       -0.16280        0.55928
H         -0.59087       -0.22567       -1.19722
H          1.90034        0.07658       -0.82647
H          1.64001        0.14421        0.91502
H         11.82750       20.24500       -1.47092
H          9.32336       20.82123        0.82476
H          9.42207       20.71486       -0.94315
H         10.76574       18.57577       -0.75324
H         10.69727       18.69161        1.00409
H          8.17851       18.50664        0.90182
H          8.25914       18.41191       -0.85749
H          9.63831       16.29159       -0.66639
H          9.51771       16.38324        1.09093
H          7.00186       16.19742        0.92166
H          7.13041       16.10752       -0.83487
H          8.51058       13.99403       -0.61453
H          8.34391       14.07778        1.13897
H          5.83562       13.88137        0.90681
H          6.00648       13.79756       -0.84634
H          7.38910       11.69105       -0.60306
H          7.18960       11.76901        1.14688
H          4.68767       11.55779        0.86982
H          4.88911       11.47891       -0.88026
H          6.27545        9.37933       -0.62149
H          6.05459        9.45285        1.12584
H          3.55714        9.22929        0.81905
H          3.77923        9.15379       -0.92870
H          5.16887        7.05982       -0.65959
H          4.93436        7.13031        1.08592
H          2.43972        6.89765        0.75957
H          2.67575        6.82415       -0.98638
H          4.06871        4.73445       -0.70938
H          3.82454        4.80352        1.03471
H          1.33245        4.56106        0.69466
H          1.57857        4.48881       -1.05002
H          2.97853        2.40553       -0.76567
H          2.72625        2.47429        0.97739
H          0.23697        2.22006        0.62635
H          0.49144        2.14926       -1.11749
