110
N-HEXATRIACONTANE.out Energy: -1415.47784155
C 0.41796133 0.64138274 -0.00097816
C -0.41796133 -0.64138274 0.00097816
C 0.41580433 -1.92556952 0.00557041
C -0.41580433 1.92556952 -0.00557041
C -0.41991765 -3.20860228 0.00720069
C 0.41991765 3.20860228 -0.00720069
C 0.41395830 -4.49302559 0.01102902
C -0.41395830 4.49302559 -0.01102902
C -0.42145283 -5.77658243 0.01176929
C 0.42145283 5.77658243 -0.01176929
C 0.41197475 -7.06168914 0.01420977
C -0.41197475 7.06168914 -0.01420977
C -0.42454883 -8.34481012 0.01366121
C 0.42454883 8.34481012 -0.01366121
C 0.40593572 -9.63197276 0.01433996
C -0.40593572 9.63197276 -0.01433996
C -0.43501472 -10.91233792 0.01239305
C 0.43501472 10.91233792 -0.01239305
C 0.39059855 -12.20240951 0.01131249
C -0.39059855 12.20240951 -0.01131249
C -0.45393493 -13.48024795 0.00811636
C 0.45393493 13.48024795 -0.00811636
C 0.37306630 -14.76914789 0.00568741
C -0.37306630 14.76914789 -0.00568741
C -0.46550241 -16.05072142 0.00169233
C 0.46550241 16.05072142 -0.00169233
C 0.37157885 -17.33289371 -0.00158188
C -0.37157885 17.33289371 0.00158188
C -0.45869424 -18.62030286 -0.00555371
C 0.45869424 18.62030286 0.00555371
C 0.38208562 -19.90039964 -0.00927149
C -0.38208562 19.90039964 0.00927149
C -0.44479370 -21.19024841 -0.01284115
C 0.44479370 21.19024841 0.01284115
C 0.40416655 -22.46222910 -0.01668743
C -0.40416655 22.46222910 0.01668743
H 1.08800397 0.63845456 -0.88092498
H 1.08524394 0.64296357 0.88103615
H -1.08524394 -0.64296357 -0.88103615
H -1.08800397 -0.63845456 0.88092498
H 1.08300565 -1.92368090 0.88764293
H 1.08595085 -1.92794995 -0.87429680
H -1.08300565 1.92368090 -0.88764293
H -1.08595085 1.92794995 0.87429680
H -1.08738119 -3.20955330 -0.87469132
H -1.08984379 -3.20578204 0.88724437
H 1.08984379 3.20578204 -0.88724437
H 1.08738119 3.20955330 0.87469132
H 1.08415239 -4.49451321 -0.86880441
H 1.08118268 -4.49138492 0.89309360
H -1.08415239 4.49451321 0.86880441
H -1.08118268 4.49138492 -0.89309360
H -1.08917213 -5.77678652 -0.86994914
H -1.09128319 -5.77457502 0.89189925
H 1.09128319 5.77457502 -0.89189925
H 1.08917213 5.77678652 0.86994914
H 1.08211971 -7.06265420 -0.86566935
H 1.07929173 -7.06137615 0.89622955
H -1.08211971 7.06265420 0.86566935
H -1.07929173 7.06137615 -0.89622955
H -1.09254932 -8.34339487 -0.86785078
H -1.09430398 -8.34327386 0.89384365
H 1.09254932 8.34339487 0.86785078
H 1.09430398 8.34327386 -0.89384365
H 1.07592530 -9.63419931 -0.86568082
H 1.07340746 -9.63508374 0.89627348
H -1.07592530 9.63419931 0.86568082
H -1.07340746 9.63508374 -0.89627348
H -1.10461453 -10.90960630 0.89268596
H -1.10317900 -10.90754787 -0.86899722
H 1.10317900 10.90754787 0.86899722
H 1.10461453 10.90960630 -0.89268596
H 1.05828721 -12.20966762 0.89309337
H 1.06040279 -12.20672679 -0.86886188
H -1.05828721 12.20966762 -0.89309337
H -1.06040279 12.20672679 0.86886188
H -1.12319157 -13.47727871 0.88869480
H -1.12195216 -13.47342918 -0.87340243
H 1.12319157 13.47727871 -0.88869480
H 1.12195216 13.47342918 0.87340243
H 1.04112246 -14.77483603 0.88721044
H 1.04273295 -14.77042540 -0.87462055
H -1.04273295 14.77042540 0.87462055
H -1.04112246 14.77483603 -0.88721044
H -1.13350884 -16.04814227 -0.87989809
H -1.13442440 -16.05313561 0.88259165
H 1.13442440 16.05313561 -0.88259165
H 1.13350884 16.04814227 0.87989809
H 1.04066507 -17.32653993 -0.88236684
H 1.03999632 -17.33151252 0.87972449
H -1.04066507 17.32653993 0.88236684
H -1.03999632 17.33151252 -0.87972449
H -1.12770114 -18.62541586 0.87554963
H -1.12751050 -18.62015036 -0.88680834
H 1.12770114 18.62541586 -0.87554963
H 1.12751050 18.62015036 0.88680834
H 1.05108035 -19.89445900 -0.89051207
H 1.05132889 -19.89948484 0.87177913
H -1.05108035 19.89445900 0.89051207
H -1.05132889 19.89948484 -0.87177913
H -1.11326339 -21.19047504 -0.89353556
H -1.11278986 -21.19555863 0.86820090
H 1.11278986 21.19555863 -0.86820090
H 1.11326339 21.19047504 0.89353556
H 1.05637925 -22.50634945 -0.90538632
H -0.22144873 -23.36924197 -0.01913925
H 1.05685875 -22.51142481 0.87139387
H -1.05637925 22.50634945 0.90538632
H 0.22144873 23.36924197 0.01913925
H -1.05685875 22.51142481 -0.87139387
