33
N-HEXYLCYCLOPENTANE.gamout	Energy:    -431.8063962
C          1.67614        3.59932        1.37435
C          0.50077        4.41393        1.93277
C          2.90298        4.15855        2.11411
C          1.08254        5.82837        2.19783
C          2.62455        5.67600        2.11769
C          4.25160        3.73865        1.51895
C          8.89286        0.52226        1.16370
C          8.55873        2.01564        1.15983
C          7.16069        2.34058        1.70020
C          6.83556        3.83946        1.69052
C          5.47920        4.23096        2.29763
H          1.79084        3.78291        0.28953
H          1.55057        2.51283        1.50825
H         -0.36582        4.43030        1.25431
H          0.15545        3.96235        2.87827
H          2.85717        3.79409        3.16008
H          0.72343        6.55637        1.45346
H          0.76242        6.20755        3.18117
H          3.00339        6.10983        1.17475
H          3.13972        6.20052        2.93647
H          4.27287        2.63703        1.45172
H          4.31026        4.11055        0.47737
H          9.90297        0.33655        0.76539
H          8.85517        0.10275        2.18370
H          8.18175       -0.05313        0.54631
H          9.31394        2.56023        1.75667
H          8.64693        2.40908        0.13004
H          6.41131        1.78680        1.10555
H          7.07345        1.95511        2.73431
H          7.62936        4.37348        2.24303
H          6.88758        4.21559        0.65069
H          5.44171        5.33147        2.37054
H          5.42351        3.85632        3.33770
