17
N-METHYLPYRROLIDINE.gamout	Energy:    -251.5358052
C          2.12998       -0.04819        0.04491
N          0.71471       -0.01868        0.31057
C          0.01135        1.15835       -0.17030
C         -1.47288        0.80991        0.03974
C         -1.50711       -0.74388        0.03021
C         -0.04084       -1.15435       -0.19157
H          2.62645        0.81241        0.52223
H          2.57582       -0.96564        0.46190
H          2.37487       -0.01862       -1.04480
H          0.33019        2.06269        0.37509
H          0.21581        1.34189       -1.25393
H         -1.82895        1.19926        1.00567
H         -2.10497        1.25320       -0.74423
H         -1.86978       -1.12757        0.99590
H         -2.16518       -1.15027       -0.75227
H          0.15365       -1.32769       -1.27860
H          0.23805       -2.08047        0.33859
