9
N-METHYLFORMAMIDE.gamout	Energy:    -208.9307745
C         -1.48320        0.48876        0.00000
N         -0.57493       -0.64205        0.00000
C          0.77388       -0.47755        0.00001
O          1.33892        0.59607       -0.00001
H         -1.33194        1.12366       -0.88888
H         -2.51887        0.12205       -0.00004
H         -1.33202        1.12363        0.88892
H         -0.94650       -1.58422       -0.00002
H          1.31755       -1.45587        0.00000
