32
N-NONYL_FORMATE.out Energy: -543.18226288
O -0.68909335 -4.58640256 0.00000000
O 1.03373369 -6.04898545 0.00000000
C 0.33392518 1.63228713 0.00000000
C -0.53515791 0.37135051 0.00000000
C -0.46525104 2.93875789 0.00000000
C 0.26988412 -0.93174283 0.00000000
C 0.40760757 4.19724536 0.00000000
C -0.60228744 -2.19042574 0.00000000
C -0.38548841 5.50777962 0.00000000
C 0.21795751 -3.46743274 0.00000000
C 0.49768715 6.75618592 0.00000000
C -0.14242248 -5.80581998 0.00000000
H 1.00219058 1.61416052 -0.88106170
H 1.00219058 1.61416052 0.88106170
H -1.20290931 0.38669175 -0.88124127
H -1.20290931 0.38669175 0.88124127
H -1.13339280 2.95757162 0.88124387
H -1.13339280 2.95757162 -0.88124387
H 0.93737115 -0.94704638 0.88142531
H 0.93737115 -0.94704638 -0.88142531
H 1.07624958 4.17720873 0.88110748
H 1.07624958 4.17720873 -0.88110748
H -1.26429026 -2.19306961 -0.88333870
H -1.26429026 -2.19306961 0.88333870
H -1.05301674 5.52810031 -0.88082148
H -1.05301674 5.52810031 0.88082148
H 0.87118664 -3.53607885 0.88590146
H 0.87118664 -3.53607885 -0.88590146
H -0.10382702 7.67923291 0.00000000
H 1.15093599 6.78498175 0.88836012
H 1.15093599 6.78498175 -0.88836012
H -0.95188672 -6.56753998 0.00000000
