36
N-OCTYLBENZENE.gamout	Energy:    -545.9829840
C          2.56804        6.31366        2.12850
C          1.39173        5.53106        1.50761
C          1.40405        4.04457        1.79268
C          3.94673        5.96385        1.55892
C          1.79827        3.11441        0.81988
C          1.04001        3.55972        3.05909
C          5.08922        6.79717        2.15325
C          1.83666        1.74628        1.10198
C          1.07562        2.19451        3.34650
C          6.47777        6.43963        1.60561
C          1.47757        1.28064        2.36828
C          7.62021        7.27402        2.19769
C          9.00775        6.90508        1.66037
C         10.14035        7.74444        2.25544
H          2.37694        7.39239        1.98426
H          2.56976        6.14945        3.22172
H          0.45025        5.96093        1.88973
H          1.38660        5.69463        0.41641
H          3.92923        6.09888        0.46049
H          4.15229        4.89105        1.72590
H          2.07456        3.46690       -0.17772
H          0.71641        4.26308        3.83206
H          4.89246        7.87071        1.96936
H          5.09242        6.67876        3.25352
H          2.14701        1.04006        0.32758
H          0.78460        1.84143        4.33889
H          6.47660        6.55588        0.50504
H          6.67577        5.36704        1.79216
H          1.50483        0.21118        2.59063
H          7.61743        7.16710        3.29931
H          7.42895        8.34651        2.00153
H          9.00987        7.01044        0.55953
H          9.19989        5.83417        1.85830
H         10.00373        8.81721        2.03642
H         11.11898        7.44413        1.84884
H         10.18786        7.63484        3.35244
