32
N-OCTYL_ACETATE.gamout	Energy:    -542.8412872
C          8.38059        1.39072        1.28875
C          7.11338        1.83240        2.02807
C          9.62029        1.44627        2.16429
C          5.84020        1.74789        1.17722
O         10.75087        1.08102        1.36062
C          4.57302        2.22380        1.89954
C         11.93390        0.96503        1.99503
C          3.29644        2.11823        1.05654
C         13.03241        0.60941        1.02354
O         12.07056        1.12929        3.18224
C          2.03304        2.61030        1.77143
C          0.76519        2.49578        0.92234
H          8.26090        0.36014        0.90941
H          8.54621        2.02818        0.40191
H          7.24419        2.87041        2.38750
H          6.98516        1.21446        2.93682
H          9.78458        2.45772        2.57571
H          9.55033        0.76269        3.02710
H          5.97810        2.34156        0.25370
H          5.69748        0.70307        0.84207
H          4.70964        3.27355        2.22208
H          4.44331        1.63982        2.83057
H          3.15075        1.06599        0.74573
H          3.42913        2.69102        0.11886
H         12.80761       -0.35510        0.54172
H         13.98971        0.55042        1.55472
H         13.08545        1.36497        0.22448
H          2.17527        3.66328        2.07815
H          1.90105        2.04066        2.71008
H          0.85143        3.08226       -0.00840
H         -0.11836        2.86454        1.46690
H          0.56627        1.44899        0.63528
