28
N-OCTYLAMINE.gamout	Energy:    -370.5165631
C         51.96914        0.02370       -0.00327
C         53.32348        0.74372       -0.01175
C         54.53323       -0.19939       -0.01372
C         50.75964        0.96655       -0.00166
C         55.88545        0.51949       -0.01450
C         49.40643        0.24727        0.00881
C         57.08677       -0.42753       -0.02550
C         48.20680        1.19682        0.01068
N         58.34125        0.31736        0.02644
H         51.90613       -0.64594       -0.88195
H         51.91377       -0.63837        0.88160
H         53.38685        1.41247        0.86726
H         53.37840        1.40666       -0.89598
H         54.47204       -0.86674       -0.89412
H         54.47760       -0.86296        0.86979
H         50.82195        1.63662        0.87683
H         50.81249        1.62874       -0.88681
H         55.97407        1.17679        0.86832
H         55.94833        1.18600       -0.89671
H         49.34267       -0.42229       -0.86891
H         49.35205       -0.41360        0.89371
H         56.99547       -1.10946       -0.90173
H         57.03832       -1.07616        0.86806
H         47.25434        0.64334        0.01892
H         48.21549        1.85520        0.89623
H         48.20529        1.84634       -0.88145
H         59.13447       -0.32364        0.05536
H         58.45837        0.86470       -0.82843
