50
N-PALMITIC_ACID.gamout	Energy:    -778.3859030
C          5.23186        1.09243        0.22473
C          5.69734       -0.03113       -0.71193
C          4.51277        2.25241       -0.47651
C          6.35619       -1.20790        0.02106
C          4.07441        3.37167        0.47851
C          6.85231       -2.33606       -0.89431
C          3.28966        4.50203       -0.19705
C          7.47328       -3.51838       -0.13595
C          2.88539        5.61999        0.78119
C          8.00104       -4.64694       -1.03325
C          2.06391        6.71889        0.14561
C          8.60598       -5.82630       -0.25687
C          9.16081       -6.95198       -1.14094
C          9.76318       -8.12442       -0.35462
C         10.33335       -9.24397       -1.23318
C         10.93421      -10.40265       -0.43498
H          4.55664        0.66412        0.98987
H          6.10237        1.48530        0.78364
H          6.40384        0.38086       -1.45714
H          4.83190       -0.40278       -1.29292
H          3.62501        1.85992       -1.00758
H          5.16802        2.67671       -1.26073
H          5.63556       -1.62623        0.74918
H          7.20290       -0.83049        0.62556
H          3.45208        2.93620        1.28329
H          4.96478        3.79182        0.98288
H          7.59447       -1.93015       -1.60741
H          6.01041       -2.70035       -1.51331
H          3.88985        4.93975       -1.01531
H          2.37810        4.09347       -0.66529
H          6.72328       -3.93404        0.56337
H          8.29756       -3.14473        0.50099
H          2.28135        5.18952        1.59970
H          3.76877        6.09838        1.22857
H          8.76264       -4.23903       -1.72444
H          7.17999       -5.01566       -1.67705
H          7.83997       -6.24421        0.42353
H          9.41242       -5.44890        0.40026
H          9.93052       -6.53813       -1.81964
H          8.35530       -7.33005       -1.79874
H          8.99225       -8.54813        0.31686
H         10.56058       -7.74323        0.31148
H         11.10301       -8.82251       -1.90611
H          9.53561       -9.62767       -1.89601
H         11.75957      -10.06008        0.21249
H         11.33585      -11.18351       -1.09963
H         10.17991      -10.87598        0.21673
O          2.37614        7.88083        0.06252
O          0.89070        6.25251       -0.34082
H          0.43323        7.01503       -0.73526
