29
N-PENTYL N-BUTYRATE.out Energy: -503.90918339
O 0.29689790 -0.51945005 0.00000000
O -1.59306362 -1.73819008 0.00000000
C -0.26664257 3.21341764 0.00000000
C 0.47204075 1.87191971 0.00000000
C 0.66254384 4.43154289 0.00000000
C -0.47938416 0.68820910 0.00000000
C -0.08474612 5.76585765 0.00000000
C 0.55052273 -2.87081863 0.00000000
C -0.17256308 -4.21603410 0.00000000
C -0.38747601 -1.68044926 0.00000000
C 0.78458894 -5.40807775 0.00000000
H -0.93261402 3.26543040 0.88140954
H -0.93261402 3.26543040 -0.88140954
H 1.13042998 1.80104909 0.88346025
H 1.13042998 1.80104909 -0.88346025
H 1.32773878 4.37986136 0.88093068
H 1.32773878 4.37986136 -0.88093068
H -1.13778943 0.69482429 -0.88492228
H -1.13778943 0.69482429 0.88492228
H 1.21589511 -2.77066283 -0.87612649
H 1.21589511 -2.77066283 0.87612649
H -0.73099382 5.86395900 -0.88838226
H -0.73099382 5.86395900 0.88838226
H 0.61133278 6.61951314 0.00000000
H -0.83950133 -4.26314358 0.87676686
H -0.83950133 -4.26314358 -0.87676686
H 0.23388421 -6.36182228 0.00000000
H 1.43836367 -5.40253363 -0.88859157
H 1.43836367 -5.40253363 0.88859157
