19
N-PROPOXYETHANOL.gamout	Energy:    -347.7141205
O          0.03068       -0.32180        0.00226
O          3.56742        0.25282        0.00589
C         -1.15449        0.43436        0.00254
C         -2.34310       -0.51437       -0.00017
C          1.20849        0.44041        0.00363
C         -3.68612        0.21373        0.00019
C          2.38519       -0.51847        0.00448
H         -1.19084        1.10052       -0.88715
H         -1.19249        1.09732        0.89455
H         -2.25744       -1.16864       -0.88479
H         -2.25881       -1.17177        0.88224
H          1.27049        1.09868       -0.88813
H          1.26876        1.09811        0.89594
H         -3.79769        0.85782       -0.88837
H         -4.52418       -0.50036       -0.00170
H         -3.79886        0.85451        0.89100
H          2.30519       -1.17187       -0.88774
H          2.30343       -1.17241        0.89614
H          4.32347       -0.34582        0.00650
