23
N-PROPYL_N-BUTYRATE.gamout	Energy:    -425.0733919
O          5.71828        1.47236        1.30190
C          4.68526        2.30872        1.08776
C          3.36203        1.61353        1.33111
O          4.82295        3.46002        0.75193
C          7.03447        2.00765        1.10997
C          2.15059        2.50562        1.07584
C          8.03636        0.90548        1.40114
C          0.82284        1.79312        1.32721
C          9.48030        1.37380        1.22466
H          3.37559        1.23689        2.36966
H          3.34095        0.70813        0.69898
H          7.17331        2.87556        1.77707
H          7.12687        2.38245        0.07621
H          2.19354        2.87771        0.03872
H          2.22780        3.40204        1.71319
H          7.82507        0.05207        0.73407
H          7.87284        0.54266        2.43040
H          0.70314        0.91077        0.67534
H          0.73994        1.44348        2.37060
H         -0.02988        2.46275        1.13551
H          9.67159        1.71496        0.19351
H         10.19009        0.56117        1.44177
H          9.71996        2.21212        1.90012
