21
N-PROPYLBENZENE.gamout	Energy:    -349.7024332
C         -1.55420        2.28587       -0.19578
C         -1.02144        1.16407        0.71412
C          0.48180        1.18069        0.87523
C         -3.07035        2.23642       -0.38836
C          1.30990        0.48332       -0.01697
C          1.09001        1.92761        1.89505
C          2.70051        0.53227        0.10146
C          2.48009        1.98168        2.01721
C          3.29211        1.28359        1.12006
H         -1.26207        3.26177        0.23114
H         -1.04984        2.22191       -1.17611
H         -1.33808        0.18884        0.30426
H         -1.49908        1.24921        1.70583
H         -3.38733        1.27802       -0.83412
H         -3.41781        3.04398       -1.05217
H         -3.60332        2.34273        0.57201
H          0.85621       -0.10907       -0.81680
H          0.46389        2.47279        2.60731
H          3.32534       -0.02140       -0.60383
H          2.93131        2.56786        2.82158
H          4.37998        1.32227        1.21587
