60
N-TETRADECYLCYCLOHEXANE.gamout	Energy:    -785.1059874
C          1.69397        1.63562        1.09318
C          1.17017        3.03274        1.43945
C          0.75828        0.53634        1.63938
C          1.15521        3.28499        2.97097
C          0.90592        1.96124        3.73366
C          2.44170        3.99225        3.43759
C          0.03983        0.98862        2.92747
C          2.49022        4.34436        4.93060
C          3.74830        5.10583        5.37893
C          7.76230        7.58596        7.14681
C          7.65145        6.14967        7.67468
C          9.02672        8.34718        7.57671
C          6.36850        5.41588        7.25180
C          6.30746        5.05173        5.76305
C          5.04622        4.29069        5.32593
C         14.41057        8.00647        4.69207
C         13.04053        8.41831        5.23555
C         12.89790        8.21304        6.74826
C         11.56185        8.67666        7.34990
C         10.33254        7.85550        6.93767
H          1.81572        1.52774        0.00375
H          2.70477        1.51860        1.52150
H          1.77932        3.80581        0.94352
H          0.15098        3.14145        1.03095
H          1.34238       -0.37884        1.83276
H          0.00721        0.26397        0.87846
H          0.30919        3.96422        3.18485
H          1.87485        1.47527        3.95505
H          0.43963        2.16458        4.71013
H          2.56405        4.92283        2.85366
H          3.30593        3.35457        3.17317
H         -0.23350        0.11578        3.54123
H         -0.91231        1.48729        2.67193
H          2.39290        3.42492        5.53556
H          1.60417        4.95835        5.17545
H          3.58288        5.46503        6.40877
H          3.86768        6.01656        4.76059
H          7.70439        7.58686        6.04303
H          6.87744        8.15162        7.49049
H          8.52735        5.55742        7.35146
H          7.69851        6.17808        8.77827
H          8.89227        9.41470        7.32475
H          9.12024        8.31195        8.67926
H          6.27295        4.48862        7.84518
H          5.49586        6.03753        7.52491
H          7.19262        4.43725        5.51795
H          6.40340        5.96702        5.15026
H          4.92980        3.38437        5.95156
H          5.20401        3.92518        4.29694
H         14.61399        6.93887        4.88351
H         14.47730        8.16638        3.60397
H         15.22355        8.58500        5.16354
H         12.25675        7.85027        4.70368
H         12.85403        9.48242        4.99849
H         13.71552        8.75640        7.25566
H         13.05948        7.14436        6.98768
H         11.39664        9.73909        7.08584
H         11.64717        8.65576        8.45141
H         10.21723        7.87502        5.83850
H         10.50651        6.79642        7.20309
