44
N-TETRADECANOIC_ACID.gamout	Energy:    -699.8747322
C          0.74244       -0.49353       -0.00006
C         -0.52705        0.36800       -0.00006
C          2.04704        0.31313       -0.00002
C         -1.83029       -0.44122       -0.00003
C          3.31351       -0.55342       -0.00007
C         -3.10161        0.41788       -0.00006
C          4.61898        0.24982        0.00003
C         -4.40463       -0.39209        0.00003
C          5.86646       -0.63140       -0.00006
C         -5.67635        0.46664       -0.00005
C         -6.98000       -0.34119        0.00009
C         -8.24806        0.52006       -0.00007
C         -9.54421       -0.29290        0.00012
O          7.27497        1.34654        0.00011
O          8.23446       -0.67890        0.00002
C          7.16439        0.14555        0.00004
H          9.02201       -0.10824        0.00007
H          0.72764       -1.16186        0.88185
H          0.72770       -1.16184       -0.88200
H         -0.51312        1.03628        0.88178
H         -0.51319        1.03630       -0.88190
H          2.06307        0.98114       -0.88182
H          2.06311        0.98107        0.88183
H         -1.84317       -1.10963       -0.88189
H         -1.84321       -1.10960        0.88188
H          3.29499       -1.22197        0.88176
H          3.29510       -1.22187       -0.88199
H         -3.08845        1.08637        0.88174
H         -3.08857        1.08629       -0.88193
H          4.65332        0.91746       -0.87806
H          4.65336        0.91727        0.87826
H         -4.41727       -1.06058       -0.88181
H         -4.41731       -1.06045        0.88199
H          5.88980       -1.30489        0.87564
H          5.88990       -1.30469       -0.87590
H         -5.66340        1.13524        0.88172
H         -5.66352        1.13505       -0.88197
H         -6.99570       -1.00966       -0.88193
H         -6.99579       -1.00942        0.88231
H         -8.23362        1.18814        0.88113
H         -8.23368        1.18781       -0.88152
H         -9.61270       -0.94295       -0.88892
H         -9.61273       -0.94257        0.88943
H        -10.42890        0.36348       -0.00003
