57
N-TETRADECYLCYCLOPENTANE.gamout	Energy:    -745.8501233
C          1.06597       10.32527        2.62241
C          0.00100       10.00110        3.70252
C          2.15507        9.25993        2.81019
C          0.68716        9.02788        4.69742
C          2.18589        9.02822        4.33039
C          2.97265        7.79244        4.78149
C          3.04492        7.60275        6.30313
C          6.03874        5.12958        7.07656
C          5.32112        6.36232        6.51036
C          7.56563        5.10790        6.89848
C          3.80976        6.35630        6.77471
C          9.58257        4.96172        5.29388
C          8.05481        4.95269        5.45419
C         10.34634        3.84381        6.01908
C          9.34912        0.81965        1.32317
C         10.23885        0.16525        2.38176
C          9.93465        0.57853        3.82887
C         10.21364        2.05057        4.16024
C          9.97155        2.40563        5.63209
H          1.49563       11.32553        2.80170
H          0.64968       10.33634        1.60376
H         -0.89227        9.53539        3.25686
H         -0.34630       10.91839        4.20321
H          1.86761        8.32090        2.30063
H          3.13121        9.56457        2.40130
H          0.50887        9.30754        5.74676
H          0.28611        8.00623        4.57040
H          2.65139        9.92274        4.79051
H          2.51553        6.89266        4.32532
H          3.99328        7.85743        4.36591
H          3.49608        8.50424        6.76039
H          2.01902        7.54546        6.70543
H          5.60777        4.21577        6.62412
H          5.81584        5.05782        8.15647
H          5.76251        7.27400        6.95676
H          5.50856        6.43386        5.42477
H          7.99816        6.03062        7.33085
H          7.96296        4.27843        7.50775
H          3.63994        6.23946        7.86023
H          3.36306        5.45789        6.30682
H          9.82146        4.93277        4.21684
H          9.97151        5.93090        5.65509
H          7.63465        4.02227        5.02942
H          7.64735        5.77032        4.83537
H         11.42575        3.99207        5.83454
H         10.21726        3.95848        7.10915
H          8.28182        0.60841        1.50962
H          9.46864        1.91522        1.29841
H          9.58861        0.44363        0.31567
H         10.13715       -0.93139        2.30494
H         11.29946        0.38459        2.15708
H          8.87622        0.34771        4.05708
H         10.53253       -0.05745        4.50644
H         11.26364        2.28696        3.90151
H          9.59215        2.69699        3.51652
H          8.91341        2.20675        5.88389
H         10.55844        1.71749        6.26673
