41
N-TRIDECYLIC_ACID.gamout	Energy:    -660.6185972
C         -0.04308        0.64499       -0.06769
C          1.22801        1.48948       -0.18293
C          0.99052        2.98959        0.02616
C          2.25998        3.84401       -0.08159
C          2.02394        5.34740        0.11473
C          3.29741        6.19809        0.00985
C          3.06285        7.70653        0.17108
C          4.34057        8.55171        0.06712
O          7.39019       15.39870       -0.06137
C          6.21916       14.72476       -0.06368
C          6.43986       13.22914        0.00394
O          5.15237       15.28501       -0.12020
C          5.14940       12.41622        0.09298
C          5.38799       10.90202        0.06841
C          4.10488       10.06477        0.16905
H          0.16837       -0.42547       -0.22104
H         -0.50751        0.75308        0.92742
H         -0.79568        0.94557       -0.81674
H          1.68734        1.32838       -1.17580
H          1.97357        1.13343        0.55220
H          0.52612        3.14889        1.01790
H          0.24700        3.34571       -0.71232
H          2.72767        3.67438       -1.06991
H          2.99926        3.49139        0.66264
H          1.55299        5.51693        1.10147
H          1.28799        5.70116       -0.63218
H          3.77979        6.00772       -0.96754
H          4.02472        5.85913        0.77203
H          2.57707        7.89860        1.14634
H          2.33986        8.04616       -0.59477
H          4.84455        8.32706       -0.89192
H          5.04958        8.23818        0.85695
H          7.16300       16.34300       -0.11434
H          7.03010       12.95163       -0.88856
H          7.11182       13.03450        0.85867
H          4.60785       12.70058        1.01183
H          4.48932       12.71006       -0.74091
H          5.92179       10.63333       -0.86288
H          6.07037       10.62271        0.89384
H          3.59424       10.29339        1.12329
H          3.40413       10.37818       -0.62773
