71
N-TRICOSANE.gamout	Energy:    -904.0808012
C          6.90886        6.46264        5.30373
C          5.67303        5.79450        4.68673
C          4.49888        5.63803        5.66165
C          8.07817        6.62602        4.32465
C          3.26691        4.91023        5.09842
C          9.29616        7.38173        4.87858
C          2.53754        5.64189        3.96336
C         10.03335        6.73150        6.06014
C          1.24025        4.95541        3.51833
C         10.68702        5.37603        5.76140
C          0.44582        5.70532        2.43605
C         11.47996        4.80885        6.94623
C          1.11034        5.83551        1.05577
C         12.09870        3.41854        6.72586
C          1.32462        4.51280        0.30795
C         13.22317        3.34857        5.68370
C          1.89151        4.68468       -1.10919
C         13.85955        1.95814        5.55262
C          2.09946        3.36971       -1.87316
C         14.98772        1.87440        4.51741
C          2.65875        3.54898       -3.28999
C         15.61396        0.48264        4.40167
C          2.85529        2.23199       -4.04420
H          7.23525        5.87664        6.18267
H          6.62585        7.45717        5.69840
H          5.95265        4.79835        4.29366
H          5.35260        6.38147        3.80658
H          4.85008        5.09056        6.55514
H          4.19168        6.63609        6.02823
H          8.38877        5.63191        3.95373
H          7.72037        7.16849        3.43107
H          3.56363        3.89992        4.75768
H          2.55555        4.74717        5.92792
H          8.97473        8.39412        5.18359
H         10.01439        7.53668        4.05337
H          3.21432        5.75415        3.09809
H          2.30229        6.67255        4.29194
H          9.34515        6.62544        6.91886
H         10.81382        7.43558        6.39971
H          1.46179        3.92622        3.18095
H          0.58304        4.83646        4.39874
H         11.34882        5.48248        4.88241
H          9.91306        4.64330        5.46763
H         -0.53281        5.20789        2.31185
H          0.21467        6.71950        2.80940
H         10.81092        4.75159        7.82348
H         12.27754        5.52193        7.22953
H          0.47510        6.49196        0.43420
H          2.07422        6.36874        1.14820
H         11.29945        2.70439        6.44992
H         12.49080        3.05944        7.69410
H          1.99982        3.85658        0.88730
H          0.36054        3.97240        0.25218
H         14.00752        4.08445        5.94454
H         12.83897        3.65953        4.69499
H          2.85334        5.22887       -1.05278
H          1.21650        5.33866       -1.69390
H         14.24875        1.64069        6.53916
H         13.07546        1.22094        5.29451
H          1.13769        2.82528       -1.93032
H          2.77842        2.71263       -1.29661
H         14.60087        2.18572        3.52913
H         15.77332        2.60962        4.77286
H          3.62103        4.09105       -3.23595
H          1.98138        4.20488       -3.86804
H         16.41762        0.46643        3.64904
H         16.05106        0.15687        5.36112
H         14.86611       -0.27319        4.10668
H          1.90280        1.68555       -4.15204
H          3.25542        2.40420       -5.05576
H          3.55951        1.56579       -3.51695
