92
N-TRIACONTANE.gamout	Energy:   -1178.8794440
C         14.45856        1.28116        7.26064
C         13.09457        1.19573        6.56352
C         11.89551        1.19527        7.52174
C         15.65132        1.30382        6.29494
C         10.53536        1.14729        6.81315
C         17.01646        1.42344        6.98528
C          9.32652        1.17272        7.75951
C         18.20647        1.46427        6.01640
C          7.97244        1.16137        7.03721
C         19.57049        1.61282        6.70391
C          6.76032        1.21376        7.97737
C         20.75927        1.66782        5.73404
C          5.38838        1.16189        7.28378
C         22.12138        1.83839        6.42059
C          5.06393        2.37350        6.39730
C         23.30964        1.90386        5.45066
C          3.65165        2.35952        5.79298
C         24.67004        2.08963        6.13683
C          3.34922        3.56968        4.89408
C         25.85799        2.16215        5.16689
C          1.93671        3.57946        4.28929
C         27.21720        2.35726        5.85280
C          1.64847        4.78942        3.38651
C         28.40476        2.43398        4.88262
C          0.23565        4.79555        2.78715
C         29.76404        2.63356        5.56542
C         -0.11321        6.03081        1.94378
C         30.94650        2.71110        4.59241
C          0.70047        6.18541        0.65717
C         32.29802        2.91087        5.28090
H         14.56665        0.43113        7.96062
H         14.48830        2.19189        7.88861
H         13.06320        0.28658        5.93346
H         12.99147        2.04774        5.86511
H         11.94265        2.10183        8.15463
H         11.97886        0.33949        8.21817
H         15.63705        0.38987        5.67116
H         15.52510        2.14845        5.59141
H         10.48725        0.24269        6.17759
H         10.46140        2.00575        6.11887
H         17.14468        0.57970        7.68948
H         17.02899        2.33813        7.60812
H          9.38260        0.31309        8.45424
H          9.39042        2.07568        8.39622
H         18.06318        2.30186        5.30773
H         18.20854        0.54622        5.39842
H          7.90412        0.25686        6.40309
H          7.93502        2.02025        6.34294
H         19.71410        0.77498        7.41222
H         19.56771        2.53084        7.32198
H          6.82278        0.37366        8.69169
H          6.82060        2.13319        8.59067
H         20.60401        2.49987        5.02133
H         20.77438        0.74690        5.12050
H          5.31877        0.23898        6.67693
H          4.60934        1.06715        8.06142
H         22.27600        1.00534        7.13227
H         22.10639        2.75882        7.03492
H          5.19306        3.29970        6.98925
H          5.80124        2.43524        5.57676
H         23.33402        0.98129        4.83987
H         23.14646        2.73225        4.73540
H          2.90452        2.31258        6.60787
H          3.51239        1.43128        5.20663
H         24.83248        1.26006        6.85085
H         24.64630        3.01162        6.74854
H          4.09391        3.60219        4.07656
H          3.49990        4.50063        5.47333
H         25.68981        2.98844        4.45034
H         25.88779        1.23878        4.55748
H          1.78264        2.65036        3.70806
H          1.19097        3.54813        5.10596
H         27.18786        3.28017        6.46289
H         27.38461        1.52991        6.56830
H          2.40083        4.81512        2.57772
H          1.79666        5.72109        3.96558
H         28.43712        1.51037        4.27371
H         28.23433        3.25954        4.16566
H         -0.49751        4.71644        3.61008
H          0.09445        3.88619        2.17200
H         29.73555        3.55757        6.17417
H         29.93786        1.80773        6.28142
H          0.00324        6.93906        2.56447
H         -1.18497        5.98051        1.68389
H         30.77441        3.53623        3.87651
H         30.97779        1.78799        3.98414
H          0.60096        5.29528        0.01200
H          0.35877        7.05566        0.07471
H          1.77505        6.32889        0.85726
H         32.52445        2.08309        5.97477
H         33.11772        2.96126        4.54689
H         32.31916        3.84570        5.86699
