51
N-TRIDECYLBENZENE.gamout	Energy:    -742.2642535
C         15.17989        6.51474        4.74349
C         13.76844        6.25071        5.30489
C         13.44765        4.80211        5.61579
C         16.32786        6.15820        5.69406
C         13.14556        4.38589        6.92047
C         13.42693        3.83727        4.59560
C         17.71995        6.45780        5.12320
C         12.83438        3.05186        7.20111
C         13.11852        2.50398        4.86973
C         18.87533        6.10681        6.07066
C         12.82114        2.10468        6.17592
C         20.26868        6.40097        5.49901
C         21.42333        6.05075        6.44716
C         22.81700        6.34368        5.87583
C         23.97093        5.99430        6.82516
C         25.36533        6.28699        6.25513
C         26.51919        5.93952        7.20416
C         27.91075        6.23438        6.63313
C         29.05378        5.88628        7.58903
H         15.30388        5.96829        3.79066
H         15.24704        7.58610        4.48160
H         13.03168        6.62404        4.57143
H         13.62230        6.85732        6.21463
H         16.26667        5.08770        5.96086
H         16.19499        6.71138        6.64346
H         13.15137        5.12011        7.73069
H         13.64621        4.13522        3.56650
H         17.84967        5.90502        4.17319
H         17.78384        7.52951        4.85363
H         12.60125        2.75319        8.22620
H         13.10601        1.77233        4.05804
H         18.74798        6.66015        7.02057
H         18.81069        5.03546        6.33976
H         12.57780        1.06144        6.39107
H         20.33287        7.47216        5.22820
H         20.39655        5.84689        4.54961
H         21.35896        4.97976        6.71837
H         21.29542        6.60535        7.39626
H         22.88120        7.41454        5.60384
H         22.94515        5.78856        4.92706
H         23.84215        6.54977        7.77366
H         23.90631        4.92352        7.09738
H         25.42953        7.35776        5.98269
H         25.49479        5.73134        5.30682
H         26.39195        6.49553        8.15277
H         26.45806        4.86858        7.47729
H         27.97249        7.30463        6.36106
H         28.04078        5.67906        5.68558
H         29.04739        4.81420        7.85023
H         28.97575        6.45485        8.53151
H         30.03434        6.11467        7.14266
