57
N-TRIDECYLCYCLOHEXANE.gamout	Energy:    -745.8454684
C          3.35639        8.01769        5.60213
C          3.51901        6.72757        4.76851
C          2.48784        9.07459        4.88873
C          3.50686        7.01842        3.26102
C          2.12369        7.59377        2.86254
C          3.88079        5.81008        2.38181
C          1.44738        8.40578        3.98865
C          5.33696        5.33113        2.47921
C          5.67424        4.18021        1.52116
C          7.15163        3.75729        1.51694
C          7.71906        3.10011        2.78630
C          7.26684        1.65556        3.08224
C          5.98064        1.48560        3.90282
C          5.67801        0.02031        4.25116
C          4.42638       -0.21650        5.11942
C          3.11210       -0.48892        4.37055
C          2.53103        0.66422        3.54494
C          1.15801        0.34684        2.94067
C          0.56375        1.49155        2.11698
H          4.34749        8.44817        5.82423
H          2.91140        7.76113        6.57835
H          2.69811        6.02188        4.99419
H          4.44724        6.21454        5.06233
H          3.12275        9.73399        4.27053
H          2.00045        9.72886        5.62894
H          4.26644        7.80296        3.07672
H          1.45802        6.76615        2.56221
H          2.24736        8.22484        1.96562
H          3.20169        4.96940        2.62427
H          3.66377        6.07284        1.32974
H          0.76508        9.15514        3.55741
H          0.81629        7.74262        4.60699
H          5.55560        5.02471        3.51696
H          6.01510        6.17933        2.26763
H          5.03229        3.31003        1.74607
H          5.40640        4.48518        0.49345
H          7.76269        4.65128        1.29620
H          7.31731        3.07082        0.66778
H          8.81570        3.08792        2.67304
H          7.52919        3.73817        3.66895
H          8.08303        1.14626        3.62574
H          7.16760        1.10711        2.12646
H          5.12456        1.92177        3.36337
H          6.07125        2.06356        4.84132
H          6.55683       -0.39408        4.77674
H          5.59159       -0.57006        3.31944
H          4.61300       -1.08938        5.76531
H          4.28879        0.63610        5.81090
H          3.25098       -1.36887        3.71385
H          2.35655       -0.79516        5.11675
H          3.22456        0.93277        2.72779
H          2.45236        1.56535        4.18302
H          0.45768        0.07573        3.75202
H          1.24246       -0.55462        2.30533
H          0.42275        2.39851        2.72977
H         -0.41907        1.21828        1.70173
H          1.21877        1.76253        1.27146
