31
NEODECANOATE-1.gamout	Energy:    -542.2679510
O         -5.43717        3.05351        0.00368
O         -3.37833        3.99898       -0.00902
C          2.32357       -1.35109       -0.00008
C          0.77735       -1.22853       -0.00043
C          0.15976        0.17790        0.00078
C         -1.37909        0.17891        0.00076
C          2.68558       -2.84619       -0.00083
C          2.92579       -0.69850        1.25441
C          2.92609       -0.69756       -1.25378
C         -2.01465        1.57672        0.00050
C         -3.54308        1.59816        0.00049
C         -4.18933        3.04483       -0.00149
H          0.39600       -1.77939       -0.88111
H          0.39551       -1.78059        0.87925
H          0.51162        0.74517       -0.87995
H          0.51229        0.74456        0.88146
H         -1.73764       -0.39007       -0.88004
H         -1.73738       -0.39006        0.88166
H          2.27771       -3.35403       -0.89061
H          2.27745       -3.35499        0.88826
H          3.77877       -2.99533       -0.00068
H          2.50072       -1.13687        2.17271
H          4.01883       -0.84540        1.28825
H          2.73489        0.38480        1.28244
H          4.01924       -0.84353       -1.28696
H          2.50190       -1.13590       -2.17242
H          2.73421        0.38554       -1.28136
H         -1.66121        2.15540        0.87255
H         -1.66166        2.15554       -0.87161
H         -3.94381        1.05894        0.88106
H         -3.94373        1.05508       -0.87788
