5
NITROGEN_TRIOXIDE.gamout	Energy:    -334.5710942
O         -0.02987        1.85922        0.32814
N          0.78531        1.89466        1.12717
N          2.36211        1.14996        0.50062
O          2.47738       -0.02355        0.71889
O          3.10980        1.93310       -0.01487
