7
NITROGEN_PENTOXIDE.gamout	Energy:    -484.7574779
O          1.73203        1.58500        0.00015
N          0.46165        0.78447       -0.06621
O         -0.43275        1.40101        0.40922
N          3.00240        0.78412        0.06632
O          3.89651        1.40078       -0.40943
O          0.52667       -0.26740       -0.61371
O          2.93788       -0.26779        0.61378
