3
NO2-1.gamout	Energy:    -204.8741577
O         -1.07374        0.19960        0.00000
O          1.06491        0.24236       -0.00000
N          0.00883       -0.44186        0.00000
