15
O-BROMOTOLUENE.gamout	Energy:   -2844.3217390
C          6.32384        1.87559       -0.67570
C          6.85208        0.62761       -0.34215
C          4.94011        2.05428       -0.72436
C          4.09438        0.98043       -0.43881
C          4.64216       -0.26051       -0.10751
C          6.03048       -0.47383       -0.04872
Br         3.43314       -1.69740        0.27274
C          6.62755       -1.80831        0.30821
H          6.99497        2.70839       -0.89744
H          7.93687        0.49326       -0.30543
H          4.51443        3.02640       -0.98404
H          3.01065        1.10123       -0.47194
H          7.72612       -1.76303        0.29755
H          6.30408       -2.13656        1.30969
H          6.30643       -2.59162       -0.39799
