14
O-CHLOROANILINE.gamout	Energy:    -746.6236694
C          6.32033        1.87891       -0.67782
C          6.85492        0.63264       -0.35912
C          4.93601        2.07177       -0.71630
C          4.09289        0.99461       -0.43516
C          4.63068       -0.25090       -0.11695
C          6.02614       -0.47053       -0.06455
Cl         3.54779       -1.59828        0.21769
N          6.55190       -1.69134        0.30272
H          6.99560        2.70944       -0.89819
H          7.93956        0.49543       -0.32674
H          4.51431        3.04753       -0.96489
H          3.00766        1.10687       -0.46281
H          5.92342       -2.48518        0.25787
H          7.50836       -1.88461        0.03291
