14
O-CHLORONITROBENZENE.gamout	Energy:    -895.5850034
O          6.69333        4.07142       -0.74197
N          7.16308        2.97399       -1.00009
O          8.24049        2.77429       -1.52810
C          6.32543        1.80095       -0.67029
C          6.86485        0.56087       -0.28683
C          4.94198        1.97724       -0.76713
Cl         8.56292        0.27809       -0.05947
C          5.98664       -0.49583       -0.01618
C          4.08053        0.91395       -0.51401
C          4.60818       -0.32519       -0.13900
H          4.56913        2.96273       -1.04676
H          6.40649       -1.45276        0.29615
H          3.00161        1.05244       -0.60530
H          3.94328       -1.16673        0.06830
