24
O-DIETHYLBENZENE.gamout	Energy:    -388.9571448
C          0.08490       -1.32656        0.39154
C         -1.12407       -0.63307        0.39268
C         -1.12742        0.73130        0.09668
C          0.05481        1.42502       -0.19842
C          1.28445        0.72165       -0.20131
C          1.27052       -0.64917        0.09417
H          0.11240       -2.39532        0.61898
H         -2.06075       -1.14860        0.61940
H         -2.07541        1.27772        0.09038
C         -0.02474        2.91505       -0.46349
C          2.58108        1.44143       -0.53818
H          2.20539       -1.21155        0.09526
H         -1.00348        3.14261       -0.91738
H          0.72917        3.21970       -1.20690
C          0.13983        3.76712        0.80606
H          1.11049        3.58251        1.29353
H         -0.64606        3.53226        1.54202
H          0.07691        4.84241        0.57293
H          2.67308        2.33163        0.10832
H          2.49839        1.84678       -1.56392
C          3.87180        0.62836       -0.43440
H          3.89086       -0.21216       -1.14667
H          4.01772        0.21539        0.57698
H          4.73885        1.26886       -0.65821
