17
O-TOLUALDEHYDE.out Energy: -384.61072916
O 0.78407131 -2.81397494 0.00000000
C -0.95328350 0.40556724 0.00000000
C 0.12074208 -0.51856998 0.00000000
C -0.63958682 1.77311920 0.00000000
C 1.45088089 -0.06167526 0.00000000
C -2.40264600 -0.02762507 0.00000000
C 0.68444367 2.21968541 0.00000000
C 1.73885284 1.29990157 0.00000000
C -0.10322528 -1.98852830 0.00000000
H -1.45303787 2.50394580 0.00000000
H 2.24414231 -0.81266062 0.00000000
H -2.65431512 -0.63264344 0.88610306
H -3.06627347 0.84885017 0.00000000
H -2.65431512 -0.63264344 -0.88610306
H 0.89234152 3.29299795 0.00000000
H 2.77513085 1.64657564 0.00000000
H -1.17075913 -2.31818451 0.00000000
