18
O-XYLENE.gamout	Energy:    -310.4490712
C          2.44523        0.69670        1.26297
C          2.94233        2.12093        1.24606
C          2.03804        3.19998        1.11562
C          4.31255        2.39427        1.35760
C          0.55611        2.95070        0.98522
C          2.53956        4.50832        1.10671
C          4.80048        3.70292        1.34098
C          3.90777        4.76713        1.21749
H          1.72364        0.52498        2.08016
H          3.27445       -0.01395        1.39462
H          1.92482        0.43408        0.32551
H          5.01317        1.56002        1.45650
H          0.32312        2.32915        0.10299
H         -0.00167        3.89309        0.88345
H          0.15195        2.41381        1.86106
H          1.84028        5.34324        1.00479
H          5.87431        3.88735        1.42702
H          4.27161        5.79753        1.20480
