24
OCTANENITRILE.out Energy: -368.36775432
N -0.54857835 5.12690106 0.06401589
C -0.42094051 -0.93559203 0.02301024
C 0.50745185 0.28226981 -0.00231247
C 0.31805867 -2.27635351 -0.01329521
C -0.23888390 1.61825153 0.03284852
C -0.60986682 -3.49521534 0.00633133
C 0.71447757 2.82810007 0.00477724
C 0.13364016 -4.83094761 -0.03204657
C 0.01858518 4.11672670 0.03771709
H -1.05459725 -0.89173499 0.92805014
H -1.11817886 -0.87970074 -0.83331653
H 1.14094355 0.24067250 -0.90771550
H 1.20445744 0.22923911 0.85452297
H 1.01380163 -2.33368130 0.84476601
H 0.95455346 -2.31796019 -0.91703893
H -0.86583625 1.67595883 0.93876408
H -0.93051195 1.68539749 -0.82405466
H -1.24581816 -3.45199544 0.90932739
H -1.30468319 -3.43447518 -0.85113756
H 1.40723359 2.79050233 0.86312170
H 1.34280197 2.80079936 -0.90220170
H 0.80534258 -4.94182156 0.83576201
H 0.75321283 -4.91862387 -0.94032257
H -0.56428036 -5.68329066 -0.02265309
