12
OCTAFLUORO-2-BUTENE.gamout	Energy:    -950.0288655
C          1.31557        1.68856        0.01408
F          1.51628        2.99180        0.20735
F          2.49154        1.11352       -0.26432
F          0.85904        1.15456        1.15257
C          0.33241        1.42254       -1.10245
F          0.08773        0.12227       -1.22860
C         -0.27504        2.28127       -1.93208
F         -1.10510        1.79466       -2.84454
C         -0.15180        3.80069       -1.98822
F         -0.58298        4.37142       -0.85799
F          1.11434        4.17973       -2.19291
F         -0.89245        4.25972       -2.99572
