53
OLEATE-1.gamout	Energy:    -855.0940906
O          6.90186       -0.69648       -0.36525
O          5.66271       -0.75294        1.53099
C         -2.97107       -1.57063       -0.33044
C         -4.14443       -1.27393        0.61296
C         -1.73514       -2.16125        0.36517
C         -0.19737        1.88656       -0.35131
C          0.99510        1.33420        0.44448
C         -5.40251       -0.72377       -0.07429
C         -1.47732        2.07531        0.47299
C          2.25122        1.05740       -0.39826
C         -0.54715       -2.42522       -0.57118
C         -5.25919        0.67771       -0.70514
C         -2.68825        2.55581       -0.35367
C          3.43393        0.45890        0.37872
C          0.70228       -2.97130        0.13197
C         -5.03631        1.77640        0.29872
C         -3.96775        2.57706        0.43651
C          4.67097        0.15498       -0.46663
C          1.88066       -3.22135       -0.81109
C          5.87939       -0.50362        0.32302
H         -2.67290       -0.64427       -0.85276
H         -3.31050       -2.26103       -1.12640
H         -4.41700       -2.20193        1.14765
H         -3.81758       -0.56317        1.39386
H         -1.41257       -1.47535        1.17084
H         -2.01730       -3.10286        0.87478
H          0.08326        2.84767       -0.82374
H         -0.41907        1.19966       -1.19068
H          1.24709        2.03581        1.26244
H          0.68651        0.39828        0.94828
H         -6.22691       -0.69825        0.66111
H         -5.72309       -1.42876       -0.86245
H         -1.29068        2.78433        1.30148
H         -1.74018        1.11853        0.95790
H          2.56942        1.99824       -0.88944
H          1.97757        0.37637       -1.22844
H         -0.85687       -3.12967       -1.36780
H         -0.28092       -1.48661       -1.09211
H         -6.19479        0.89175       -1.25447
H         -4.46075        0.66783       -1.46359
H         -2.79447        1.91433       -1.24448
H         -2.47887        3.57269       -0.73728
H          3.12786       -0.47380        0.88633
H          3.72610        1.13208        1.20398
H          1.01499       -2.25794        0.91533
H          0.44257       -3.90789        0.66215
H         -5.86229        1.91950        1.00893
H         -4.00133        3.31797        1.24670
H          4.41448       -0.52884       -1.30072
H          5.05195        1.07305       -0.95407
H          2.18393       -2.29624       -1.32776
H          2.76173       -3.57809       -0.25825
H          1.63246       -3.97111       -1.58316
