54
OLEIC_ACID.out Energy: -856.24749076
C -0.39587253 11.72003496 0.22053965
C 0.48094760 10.47329006 0.09491438
C -0.31368261 9.16402499 0.05861495
C 0.55789223 7.91107888 -0.06698085
C -0.23611505 6.60190329 -0.10712841
C 0.63743344 5.34992382 -0.23076777
C -0.15695501 4.04149639 -0.27444336
C 0.72627499 2.78715875 -0.38888793
C -0.05732549 1.50748455 -0.48145434
C -0.01644512 0.50207008 0.40185025
C -0.80158326 -0.77690297 0.31099517
C 0.08074059 -2.03384729 0.22560996
C -0.71522257 -3.34131531 0.18220893
C 0.16062664 -4.59515932 0.10496544
C -0.63282837 -5.90443146 0.06160712
C 0.25217780 -7.15134757 -0.00839264
C -0.54135167 -8.45497487 -0.05382893
C 0.33474921 -9.70013627 -0.11991464
O 1.53391535 -9.69294490 -0.12960020
O -0.34109032 -10.87552696 -0.16887241
H 0.20869760 12.64095809 0.24156130
H -0.99738486 11.69625994 1.14491469
H -1.09861302 11.80307606 -0.62569661
H 1.19680907 10.43957623 0.93656520
H 1.09860007 10.54745607 -0.81883800
H -1.02988921 9.19654155 -0.78392582
H -0.93252643 9.08838345 0.97248816
H 1.27230649 7.87809840 0.77677453
H 1.17826428 7.98877434 -0.97941470
H -0.94926036 6.63373774 -0.95198787
H -0.85761037 6.52390811 0.80436959
H 1.34853708 5.31667639 0.61574074
H 1.26126679 5.42821744 -1.14079622
H -0.86208567 4.06963493 -1.12586244
H -0.78409079 3.95749144 0.63130796
H 1.41530230 2.73962246 0.47249799
H 1.36342085 2.89037310 -1.28846294
H -0.72818057 1.41651554 -1.34808853
H 0.65402572 0.59319100 1.26869275
H -1.47709132 -0.73741548 -0.56149859
H -1.45309515 -0.86883599 1.20164851
H 0.76986659 -2.05418851 1.09012603
H 0.72464996 -1.96160200 -0.66920462
H -1.40260922 -3.32158212 -0.68414905
H -1.36372523 -3.40306911 1.07621036
H 0.84709672 -4.61527591 0.97148290
H 0.80967474 -4.53393304 -0.78794964
H -1.31655282 -5.88745212 -0.80798207
H -1.28531715 -5.96448857 0.95301965
H 0.93452682 -7.18107865 0.85746483
H 0.90638583 -7.10279108 -0.89491345
H -1.22149002 -8.46843591 -0.92660608
H -1.19587184 -8.54537160 0.83389569
H -1.29580922 -10.71788527 -0.15417784
