5
OZONE.gamout	Energy:    -226.4106604
O          0.16016        0.37313        0.38948
O          1.23682        1.20955       -0.00000
O          2.31332        0.37295       -0.38947
H         -0.22013        0.11731       -0.47140
H          2.69357        0.11705        0.47140
