16
P-CRESOL.gamout	Energy:    -346.3238948
C          0.39577        1.08172        1.85006
C          1.90353        1.04012        1.91266
C          2.66808        0.48048        0.88239
C          2.59402        1.57548        3.01349
C          4.06489        0.45405        0.93895
C          3.98400        1.55754        3.08592
C          4.73312        0.99405        2.04317
O          6.08850        0.99807        2.15861
H          0.01364        0.51986        0.98459
H         -0.06026        0.64978        2.75682
H          0.02199        2.11712        1.76410
H          2.16560        0.05206        0.01060
H          2.02759        2.01868        3.83793
H          4.63706        0.00869        0.11868
H          4.51300        1.97453        3.94498
H          6.47704        0.58228        1.37792
