24
P-CYMENE.gamout	Energy:    -388.9601894
C          1.39398        0.36326       -3.55945
C          0.97627        1.40532       -2.71685
C          1.78608       -0.87236       -3.04583
C          1.78209       -1.12304       -1.66332
C          1.36690       -0.08096       -0.82426
C          2.17489       -2.47708       -1.08834
C          0.96935        1.15708       -1.33890
C          0.55044        2.73595       -3.28630
C          1.03497       -3.49735       -1.24936
C          3.48561       -3.02574       -1.67177
H          1.41502        0.52189       -4.64188
H          2.10334       -1.65421       -3.74047
H          1.35355       -0.23640        0.25869
H          2.33496       -2.32702       -0.00600
H          0.65343        1.94764       -0.65227
H         -0.35372        2.63520       -3.91150
H          1.33647        3.17215       -3.92548
H          0.32503        3.46183       -2.49104
H          0.80339       -3.66308       -2.31502
H          0.11276       -3.15026       -0.75841
H          1.31251       -4.46940       -0.80966
H          3.38097       -3.28040       -2.73946
H          3.78663       -3.94683       -1.14659
H          4.30698       -2.29834       -1.57822
