20
P-ETHYLANILINE.gamout	Energy:    -365.7323975
C          6.44276        1.68590       -1.13921
C          6.91167        0.58233       -0.40203
C          5.07602        1.92609       -1.27273
C          4.11696        1.08842       -0.68470
C          4.59136       -0.00858        0.04813
C          2.63823        1.38357       -0.79543
C          5.95456       -0.26306        0.19038
N          8.27160        0.30259       -0.31228
C          2.11406        2.30621        0.31504
H          7.16179        2.35726       -1.61776
H          4.74807        2.79238       -1.85560
H          3.87484       -0.68866        0.51929
H          2.42941        1.84238       -1.77705
H          2.07385        0.43509       -0.77762
H          6.28707       -1.13453        0.76141
H          8.55784       -0.27551        0.46991
H          8.89836        1.08437       -0.46775
H          1.03447        2.49667        0.20085
H          2.27978        1.86216        1.31013
H          2.63432        3.27810        0.29869
