19
P-METHYLSTYRENE.gamout	Energy:    -348.4827889
C          0.94210        2.62281        0.89666
C          1.98255        1.77587        0.91325
C          3.41597        2.11114        0.90918
C          3.90049        3.43100        0.90329
C          4.36767        1.07435        0.91074
C          5.26818        3.69629        0.89910
C          5.73520        1.34272        0.90643
C          6.21540        2.66030        0.90070
C          7.69670        2.94276        0.89462
H          1.06560        3.70964        0.87798
H         -0.08444        2.24898        0.90152
H          1.76951        0.70034        0.93113
H          3.19909        4.26782        0.90155
H          4.02392        0.03620        0.91509
H          5.61081        4.73463        0.89486
H          6.44515        0.51068        0.90753
H          8.19499        2.49577        1.77173
H          8.18307        2.51811       -0.00029
H          7.90181        4.02321        0.90648
