25
P-N-BUTYLPHENOL.gamout	Energy:    -464.0926942
O         -4.04880        0.02259        0.69379
C          2.39428       -0.02647        0.23999
C          1.41331       -0.03868       -0.94561
C          3.86520        0.02274       -0.18205
C         -0.04268       -0.03852       -0.53699
C          4.84469        0.02742        0.99253
C         -0.75141       -1.23508       -0.37045
C         -0.72584        1.16046       -0.27740
C         -2.08613       -1.24291        0.04086
C         -2.05667        1.17103        0.13316
C         -2.74930       -0.03641        0.29616
H          2.21766       -0.92323        0.86245
H          2.16430        0.83682        0.89148
H          1.61434       -0.92627       -1.57065
H          1.61383        0.83773       -1.58717
H          4.08334       -0.84026       -0.83874
H          4.03511        0.91984       -0.80638
H          4.73262       -0.87612        1.61603
H          4.68540        0.90012        1.64891
H          5.88900        0.06189        0.64366
H         -0.25345       -2.18811       -0.57131
H         -0.20289        2.11298       -0.40493
H         -2.61804       -2.19257        0.15876
H         -2.58406        2.10641        0.32954
H         -4.40349       -0.87364        0.75956
