17
P-NITROTOLUENE.gamout	Energy:    -475.4548128
C          6.34686        1.84951       -0.63066
C          6.87169        0.60095       -0.30462
C          4.96207        1.99517       -0.70906
C          6.03407       -0.49909       -0.05406
C          4.64433       -0.31550       -0.14634
C          6.61336       -1.83613        0.32852
C          4.10000        0.92520       -0.47107
N          4.39688        3.31261       -1.05703
O          5.18014        4.22717       -1.25956
O          3.18123        3.40759       -1.12039
H          6.98514        2.70989       -0.82856
H          7.95586        0.47482       -0.24416
H          3.97739       -1.16167        0.03848
H          7.60894       -1.98485       -0.11530
H          6.72798       -1.91433        1.42435
H          5.96489       -2.66546        0.00838
H          3.02447        1.07997       -0.54740
