24
P-PROPYLTOLUENE.gamout	Energy:    -388.9617575
C          0.03478        3.08494       -0.14590
C         -0.06521        3.39461       -1.65062
C          1.28031        3.57286       -2.31644
C          1.93727        4.81110       -2.30193
C          1.94144        2.49528       -2.92350
C          3.20305        4.96617       -2.86915
C          3.20551        2.65119       -3.49355
C          3.86193        3.88990       -3.47963
C          5.21604        4.06246       -4.12179
H         -0.61984        2.58157       -2.15080
H         -0.67026        4.30866       -1.78798
H          1.44910        5.67352       -1.83861
H          1.45698        1.51514       -2.95669
H          3.68794        5.94609       -2.83924
H          3.69263        1.79028       -3.96048
H          5.12642        4.26937       -5.20341
H          5.77057        4.90122       -3.67389
H          5.83164        3.15548       -4.01550
H          0.60573        3.89272        0.34555
H          0.63659        2.16848       -0.01027
C         -1.32504        2.92183        0.53236
H         -1.88945        2.07376        0.10812
H         -1.94803        3.82480        0.41168
H         -1.21442        2.73818        1.61311
