16
P-TOLUNITRILE.gamout	Energy:    -363.3177679
C          6.33617        1.86435       -0.62806
C          6.86243        0.61654       -0.30431
C          4.94362        2.03939       -0.71683
C          4.09735        0.94212       -0.47656
C          4.39336        3.32264       -1.05357
C          4.63992       -0.29904       -0.15400
C          6.02807       -0.48537       -0.05837
C          6.60712       -1.82377        0.32209
N          3.94821        4.36075       -1.32592
H          6.99861        2.71062       -0.81804
H          7.94676        0.49345       -0.24234
H          3.01595        1.07011       -0.54860
H          3.97087       -1.14437        0.02651
H          7.60837       -1.96533       -0.11129
H          6.70852       -1.91231        1.41855
H          5.96584       -2.65263       -0.01399
