20
PARACETAMOL.gamout	Energy:    -514.8196435
C          0.86386        0.20443        0.38364
C          0.67344       -1.18899        0.35752
C         -0.60137       -1.74578        0.30373
C         -1.72833       -0.91356        0.27472
O         -2.95545       -1.49998        0.22215
C         -1.54511        0.47351        0.30090
C         -0.26749        1.03548        0.35470
H          1.54176       -1.85476        0.37925
H         -0.74088       -2.82824        0.28340
H         -3.63575       -0.81448        0.20707
H         -2.41757        1.13492        0.27872
H         -0.13653        2.11459        0.37426
N          2.18811        0.69219        0.43657
C          2.63326        1.99476        0.46883
H          2.90373       -0.02443        0.45170
O          1.89999        2.96673        0.45633
C          4.15006        2.12024        0.52173
H          4.61847        1.65283       -0.36037
H          4.55977        1.63046        1.42082
H          4.40592        3.18603        0.54390
