6
PERCHLORIC_ACID.out Energy: -760.91888270
Cl 0.02279341 0.16138597 0.00000000
O -0.32785329 -1.51164499 0.00000000
O -1.31383186 0.71877032 0.00000000
O 0.78998701 0.38053628 -1.22103577
O 0.78998701 0.38053628 1.22103577
H 0.55112097 -1.94115082 0.00000000
