29
PERFLUORONONANE.gamout	Energy:   -2337.0789650
C         -3.22951        2.91380        0.46123
C         -1.91560        2.51928       -0.28587
C         -0.90668        1.67083        0.56062
C          0.41196        1.28145       -0.20180
C          1.42675        0.42840        0.65076
C          2.74671        0.04035       -0.11606
C          3.76274       -0.81695        0.72844
C          5.07406       -1.20425       -0.03382
C          6.09220       -2.06085        0.78399
F         -2.95805        3.65004        1.53493
F         -3.90495        1.82957        0.83331
F         -1.31815        3.66108       -0.66562
F         -2.27311        1.81957       -1.37534
F         -0.57724        2.38560        1.65032
F         -1.53021        0.54252        0.94199
F          1.02553        2.41440       -0.58094
F          0.07401        0.57065       -1.29002
F          1.76467        1.13780        1.73977
F          0.81250       -0.70446        1.02865
F          2.41256       -0.67038       -1.20534
F          3.36417        1.17176       -0.49265
F          3.15472       -1.95517        1.10400
F          4.11102       -0.11724        1.82161
F          4.75488       -1.91798       -1.12577
F          5.71224       -0.08268       -0.40455
F          6.50210       -1.40796        1.86769
F          7.14531       -2.30471        0.00491
F          5.54867       -3.21866        1.14854
F         -3.98493        3.62727       -0.37148
