23
PERFLUOROHEPTANOIC_ACID.gamout	Energy:   -1713.7385747
F          1.43244        0.91119        0.95385
F          1.36914        0.79156       -1.23593
F          0.64228       -1.84050       -1.09497
F          0.63480       -1.73930        1.09492
F         -1.30619       -0.02056       -1.05652
F         -1.19229        0.26029        1.11681
F          3.27783       -1.00483        1.07536
F          3.28713       -1.07018       -1.11566
F         -0.76176        2.48782       -1.54992
F         -0.30250        2.92499        0.55371
F          4.39208       -3.21553        0.07708
F          2.60571       -3.71812       -1.03775
F          2.55174       -3.65767        1.13046
O         -3.37967        1.95699       -0.91097
O         -2.90960        3.09955        0.94808
C          0.85325        0.30302       -0.09411
C          1.18721       -1.23626       -0.02288
C         -0.67892        0.65500       -0.05872
C          2.71834       -1.57127       -0.00639
C         -1.03679        2.16467       -0.25826
C          3.06724       -3.09296        0.04202
C         -2.55315        2.45944        0.00927
H         -2.89067        1.48706       -1.60457
