32
PERYLENE.gamout	Energy:    -768.3724682
C         -1.47898       -2.42829       -0.00095
C         -2.88680       -2.42495       -0.00042
C         -3.58027       -1.23447        0.00020
C         -2.88063       -0.00021        0.00043
C         -3.58087        1.23358        0.00067
C         -2.88875        2.42471        0.00012
C         -1.48086        2.42867       -0.00031
C         -0.73967        1.24935       -0.00017
C          0.73932        1.24923       -0.00011
C          1.48094        2.42818       -0.00026
C          2.88868        2.42356       -0.00018
C          3.58110        1.23282       -0.00006
C          2.88006       -0.00032        0.00036
C          3.57989       -1.23386        0.00018
C          2.88714       -2.42427       -0.00001
C          1.47969       -2.42778        0.00030
C          0.73946       -1.24824        0.00077
C         -0.73943       -1.24830       -0.00084
C         -1.44387        0.00035        0.00008
C          1.44358        0.00035        0.00034
H         -0.97117       -3.39248        0.00172
H         -3.42336       -3.37608       -0.00071
H         -4.67291       -1.22636        0.00025
H         -4.67353        1.22456        0.00096
H         -3.42603        3.37537       -0.00032
H         -0.97429        3.39348       -0.00101
H          0.97494        3.39330       -0.00063
H          3.42579        3.37435       -0.00053
H          4.67369        1.22372       -0.00055
H          4.67251       -1.22542        0.00001
H          3.42382       -3.37528       -0.00069
H          0.97296       -3.39242       -0.00019
