7
PF6-1.gamout	Energy:    -939.8336725
P          1.80778       -1.44288        0.16149
F          3.29337       -1.45912        0.86640
F          1.20429       -0.62452        1.45483
F          1.44748       -2.86853        0.89710
F          2.41414       -2.26149       -1.13081
F          2.16971       -0.01693       -0.57399
F          0.32113       -1.42653       -0.54322
