20
PHENOXYETHANOL.out Energy: -460.96216637
O -0.34383295 -0.88093784 -0.26808346
O -0.61799064 -3.62585321 0.62263818
C 0.75539327 -1.76194568 -0.20275344
C -0.15073694 0.45524700 -0.11787815
C 0.25955528 -3.18829397 -0.38420370
C 1.09947721 1.05938435 0.08689839
C -1.30603214 1.25525381 -0.18157580
C 1.18070458 2.45169470 0.22235849
C -1.20837680 2.63701126 -0.04568906
C 0.03728814 3.24749087 0.15727321
H 1.49724489 -1.52900987 -0.99218099
H 1.27447854 -1.66211499 0.77292103
H 1.15171980 -3.84266138 -0.48342751
H -0.29664340 -3.25161623 -1.33322847
H 2.01069300 0.46329094 0.13993564
H -2.26719748 0.76191367 -0.33960474
H 2.15957896 2.91250044 0.38028312
H -2.11469991 3.24617877 -0.09846840
H 0.11146281 4.33222752 0.26285917
H -0.15595732 -3.59207252 1.47068572
