14
PHENYL_ISOCYANATE.gamout	Energy:    -399.2174072
C          6.82546        4.16772       -1.28422
N          6.84605        3.00444       -0.97648
C          6.09563        1.87261       -0.67628
O          6.92049        5.29838       -1.58334
C          6.76664        0.68251       -0.35741
C          4.69005        1.89729       -0.68514
C          6.03899       -0.46752       -0.05036
C          3.97315        0.74171       -0.37650
C          4.64188       -0.44390       -0.05807
H          7.85776        0.67733       -0.35457
H          4.16756        2.82352       -0.93401
H          6.56988       -1.38982        0.19752
H          2.88058        0.76892       -0.38499
H          4.07517       -1.34580        0.18301
