4
PHOSPHORUS_TRICHLORIDE.gamout	Energy:   -1721.2708096
Cl        -0.96003        1.59179        0.24176
Cl        -0.89659       -1.62845        0.24198
Cl         1.85738        0.03664        0.24171
P         -0.00084       -0.00008       -0.70883
