23
PIMELIC_ACID.gamout	Energy:    -574.1695891
C          3.69940        2.45245        4.40512
C          4.16432        3.21363        3.16142
C          5.62783        3.66902        3.24749
C          2.26589        1.95397        4.42160
C          6.10972        4.43249        2.00661
O          1.57973        2.26325        3.30129
O          1.76928        1.34022        5.33302
C          7.57007        4.88121        2.10728
C          8.14329        5.64752        0.92893
O          7.25460        5.82672       -0.07079
O          9.27364        6.06301        0.86973
H          3.81409        3.06606        5.31611
H          4.32669        1.56121        4.58462
H          3.51177        4.08960        3.00449
H          4.02461        2.57572        2.27223
H          5.76095        4.30482        4.14322
H          6.27601        2.78653        3.40883
H          5.98325        3.80211        1.11005
H          5.47015        5.31630        1.84086
H          0.68448        1.90012        3.41821
H          8.24385        4.01949        2.26086
H          7.73011        5.52556        2.98985
H          7.71960        6.32246       -0.76726
