22
PIMELATE-1.out Energy: -573.91468457
O -1.45218028 2.56621571 -0.32989196
O -0.39103424 -3.23749558 0.89889289
O 0.29843159 3.64443779 0.61834773
O 0.59273780 -3.66821073 -1.04104090
C 0.24200688 0.05276964 0.99749656
C 1.32008265 0.77831441 0.16926491
C -0.93827667 -0.50736293 0.18555091
C 0.76815319 1.80771411 -0.83058430
C -0.58813096 -1.56463361 -0.86832800
C -0.23194720 2.79235197 -0.12308436
C -0.05144996 -2.90251991 -0.37139372
H 0.72254830 -0.74687537 1.59562114
H -0.17618491 0.77411250 1.71796332
H 1.95923401 0.03686543 -0.34982855
H 1.97642886 1.31268214 0.87725228
H -1.70632425 -0.91554959 0.87856569
H -1.43236053 0.35773335 -0.29316644
H 0.25956581 1.30333384 -1.67054423
H 1.61637032 2.38136159 -1.24364652
H -1.48877065 -1.81175586 -1.46130054
H 0.14393112 -1.18339945 -1.59520154
H -0.86535557 -2.48966348 1.29569816
