37
POLY_PVA5.gamout	Energy:    -769.3990649
C          0.13819        0.09884       -0.00104
C          1.47192       -0.15504        0.68782
H          2.29511       -0.08103       -0.03885
H          1.48985       -1.16907        1.12089
H          1.64925        0.57263        1.49619
O         -0.00732       -0.86800       -1.02852
H          0.15767        1.11079       -0.45085
C         -1.04777        0.06354        0.98837
H         -0.75660       -0.56167       -1.56209
H         -1.05138        1.00534        1.56611
H         -0.91195       -0.75975        1.71188
C         -2.39936       -0.13235        0.29345
H         -2.45816       -1.18712       -0.03166
O         -2.43265        0.69588       -0.86894
C         -3.60580        0.12559        1.22064
H         -3.41504        0.99639        1.87228
H         -3.71997       -0.74973        1.88427
C         -4.91730        0.38426        0.46140
O         -4.95907       -0.47312       -0.68231
H         -4.89423        1.42961        0.10268
C         -6.17268        0.22420        1.34759
H         -3.24273        0.42682       -1.33555
H         -5.75038       -0.18708       -1.17204
H         -6.28822        1.14370        1.94786
H         -6.03745       -0.60772        2.06025
C         -7.45542       -0.04796        0.55182
H         -7.42671       -1.10104        0.21763
O         -7.44998        0.78418       -0.61326
C         -8.73610        0.14313        1.39096
H         -8.62001        0.98715        2.09226
H         -8.88827       -0.76363        2.00051
C         -9.97242        0.42131        0.53934
O         -9.95724       -0.44607       -0.59342
H         -9.95989        1.47836        0.21144
H        -10.88485        0.26991        1.14494
H         -8.21283        0.48726       -1.13900
H        -10.77377       -0.32044       -1.09386
