107
POLY_PMMA7.gamout	Energy:   -2418.6741451
C         -0.67343        0.93694        1.47843
C          0.28170       -0.21366        1.80447
C         -0.42741       -1.55798        1.67787
C          1.68410       -0.15430        1.14926
H         -1.54843        0.90427        2.14206
H         -0.16876        1.90395        1.62426
H          0.50700       -0.15915        2.88707
O         -1.59924       -1.71148        1.43246
O          0.40303       -2.58921        1.94105
H          2.19940        0.72472        1.56410
C          1.84772       -0.10739       -0.40839
H          2.23812       -1.03516        1.50413
C         -0.18247       -3.88970        1.90473
H         -0.60467       -4.10046        0.91011
H         -0.99358       -3.97465        2.64423
H          0.62360       -4.59688        2.13697
C          1.29818        1.22783       -0.93110
C          1.07251       -1.24576       -1.07920
C          3.39255       -0.20408       -0.63801
H          3.73713       -1.07677       -0.06513
H          3.83600        0.67751       -0.15310
C          4.04664       -0.30831       -2.06043
H          1.18471       -1.22316       -2.16986
H         -0.00351       -1.16268       -0.88309
H          1.42519       -2.21556       -0.70341
O          1.95165        2.28887       -0.41237
O          0.37822        1.35277       -1.70348
C          1.48158        3.57340       -0.81856
H          1.55942        3.69182       -1.91022
H          2.11515        4.30827       -0.30618
H          0.42687        3.71030       -0.53505
H         -1.04600        0.89006        0.44623
C          3.60387        0.83033       -2.98244
C          3.66758       -1.64129       -2.71877
C          5.58624       -0.27150       -1.76412
H          5.80081       -1.14313       -1.12968
H          5.75767        0.61395       -1.13587
C          6.68981       -0.25455       -2.87821
O          3.13464       -1.76187       -3.79617
O          3.99715       -2.70205       -1.95447
C          3.65854       -3.98352       -2.48121
H          3.99865       -4.71898       -1.74146
H          4.15281       -4.15572       -3.44944
H          2.57156       -4.06597       -2.63593
H          4.08127        0.75627       -3.96565
H          3.86067        1.79841       -2.53257
H          2.52388        0.79885       -3.16494
C          6.62191        1.05128       -3.67962
C          6.54493       -1.42539       -3.85059
C          8.02602       -0.32314       -2.06065
H          7.94156       -1.19936       -1.40238
H          8.03640        0.56009       -1.40798
C          9.45089       -0.41339       -2.71396
H          7.34203       -1.41294       -4.60280
H          5.60288       -1.36950       -4.40669
C          9.69699        0.70972       -3.72373
C          9.59796       -1.81705       -3.32431
C         10.41761       -0.32053       -1.47662
H          9.58104        1.68402       -3.22916
H          9.00064        0.66183       -4.56803
H         10.70657        0.65553       -4.14758
H         10.21051       -1.20895       -0.86461
H         10.09404        0.55130       -0.89272
C         11.97889       -0.20006       -1.59172
H          6.58621       -2.37721       -3.30565
O          6.72008        2.13886       -2.88948
C          6.66519        3.40055       -3.55216
O          6.49888        1.13539       -4.87920
H          5.70902        3.52152       -4.08428
H          7.47703        3.49161       -4.28975
H          6.76991        4.16291       -2.77016
O          9.90752       -1.80806       -4.63511
C         10.03968       -3.08217       -5.26917
O          9.45068       -2.84110       -2.69826
H         10.83453       -3.67689       -4.79314
H         10.29089       -2.87239       -6.31563
H          9.09789       -3.64905       -5.20725
C         12.30973        1.21733       -2.08179
C         12.58242       -1.29494       -2.47232
C         12.49253       -0.32327       -0.11053
H         12.04110       -1.23409        0.30497
H         12.06523        0.52244        0.44736
C         14.00773       -0.36545        0.24754
C         14.80633        0.81850       -0.30275
C         14.68969       -1.65912       -0.19858
C         14.11975       -0.34693        1.79338
H         13.54671       -1.16596        2.25020
H         13.74297        0.60824        2.19009
H         15.17110       -0.44963        2.10366
H         14.33038        1.76588       -0.01430
H         14.89626        0.78188       -1.39517
H         15.82803        0.80330        0.09804
O         13.08299        1.23894       -3.18369
O         11.92627        2.22689       -1.53806
C         13.45625        2.52705       -3.67470
H         14.05154        3.07229       -2.92568
H         12.56781        3.13031       -3.91657
H         14.05291        2.34428       -4.57637
H         12.32410       -2.28012       -2.06247
H         13.67377       -1.21402       -2.52801
H         12.21173       -1.23631       -3.50192
O         14.00373       -2.75315        0.18681
O         15.74547       -1.72792       -0.78185
C         14.59069       -4.00809       -0.14686
H         15.59839       -4.09600        0.28619
H         14.68054       -4.12192       -1.23879
H         13.92496       -4.77789        0.26263
