72
POLY_PDMS7.gamout	Energy:   -3111.4664990
C         -1.21825       -1.38413       -0.91803
Si        -0.90445       -0.07266       -2.22524
O          0.20708        1.01754       -1.62941
H         -2.18436        0.65211       -2.51559
C         -0.25415       -0.82705       -3.81966
H         -1.57747       -0.92874        0.01967
H         -0.29813       -1.94773       -0.68967
H         -1.98150       -2.10480       -1.25728
H         -0.97882       -1.54465       -4.24071
H          0.69195       -1.36660       -3.64550
H         -0.06593       -0.05348       -4.58262
Si         0.74847        2.58572       -1.50572
C         -0.46174        3.57534       -0.47105
C          1.01023        3.31432       -3.21424
O          2.21384        2.55797       -0.73953
H          0.06500        3.40149       -3.77598
H          1.69936        2.68564       -3.80279
H          1.45440        4.32149       -3.14756
H         -0.62132        3.09775        0.51017
H         -1.44269        3.65251       -0.96934
H         -0.09351        4.59904       -0.29242
Si         3.45224        1.83954        0.10682
C          4.30513        0.57655       -0.98411
C          2.79493        1.10874        1.70237
O          4.54842        3.02565        0.48449
H          4.65027        1.04511       -1.92112
H          3.62627       -0.24998       -1.25163
H          5.18553        0.14183       -0.48214
H          2.07380        0.29761        1.50642
H          2.28196        1.87933        2.30205
H          3.61174        0.69568        2.31743
Si         4.91346        4.64885        0.38892
C          3.68466        5.63620        1.40380
C          4.97610        5.18470       -1.40910
O          6.41976        4.83726        1.06173
Si         7.85667        4.08303        1.45062
C          8.71556        3.50707       -0.11491
C          7.55139        2.68976        2.66609
O          8.81383        5.21601        2.19091
Si         9.00859        6.82910        2.56367
H          3.69741        5.30865        2.45710
H          2.65822        5.50727        1.02148
H          3.91865        6.71373        1.38571
H          3.99402        5.06950       -1.89671
H          5.70344        4.57768       -1.97418
H          5.27667        6.24127       -1.50259
H          6.88469        1.92781        2.23060
H          7.07044        3.06924        3.58332
H          8.49270        2.19671        2.95792
H          8.85233        4.34318       -0.82161
H          8.13491        2.72285       -0.62921
H          9.71212        3.09148        0.10839
C          7.68195        7.37119        3.77176
C          9.04133        7.84864        0.99037
O         10.47720        6.97854        3.31591
Si        11.88197        6.22055        3.79302
C         12.86034        5.60653        2.32077
C         11.45461        4.84915        5.00529
O         12.84209        7.37632        4.52509
H         12.37675        8.01943        5.07265
H          7.72447        6.76306        4.69158
H          6.67424        7.25734        3.33918
H          7.81408        8.42632        4.06277
H          8.08883        7.77410        0.43990
H          9.84749        7.50312        0.32077
H          9.22472        8.91395        1.20888
H         10.78873        4.10130        4.54328
H         10.93907        5.24872        5.89574
H         12.36268        4.32915        5.35242
H         13.09264        6.43786        1.63403
H         12.30497        4.83957        1.75617
H         13.81852        5.16336        2.63958
