97
POLY_PA65.gamout	Energy:   -1825.0742293
C         -5.15740       -3.38477       -9.72578
C         -4.78712       -2.25253       -8.76615
C         -4.35084       -2.73525       -7.37845
C         -3.96613       -1.59605       -6.43122
C         -3.51524       -2.05704       -5.04122
C         -2.90363       -0.91783       -4.22426
N         -3.16375       -0.95030       -2.88108
C         -2.59527        0.01020       -1.95318
C         -1.45871       -0.55336       -1.08990
C         -0.86031        0.49868       -0.14897
C          0.25755       -0.03132        0.75518
C          0.87624        1.04362        1.65619
C          1.76761        0.45601        2.75084
N          2.89054        1.18214        3.03822
C          3.80995        0.83201        4.10593
C          3.72108        1.76978        5.31648
C          4.70852        1.41080        6.43287
C          4.69633        2.40042        7.60236
C          5.65731        2.02910        8.73787
C          5.88629        3.17992        9.71914
H         -4.30899       -4.07247       -9.88363
H         -5.99849       -3.98434       -9.33730
H         -5.45540       -2.99448      -10.71196
H         -3.97388       -1.64679       -9.20663
H         -5.64597       -1.56425       -8.65895
H         -5.16308       -3.34039       -6.93094
H         -3.49125       -3.42419       -7.48721
H         -3.14465       -1.00208       -6.86473
H         -4.81710       -0.89831       -6.32438
H         -4.34298       -2.53555       -4.48898
H         -2.72682       -2.82593       -5.14756
O         -2.21686       -0.05014       -4.74045
H         -2.21914        0.83881       -2.57136
H         -3.39521        0.41469       -1.30617
H         -1.83013       -1.41193       -0.49884
H         -0.67427       -0.95116       -1.75752
H         -0.47938        1.34073       -0.75684
H         -1.66370        0.92403        0.48203
H         -0.12111       -0.83762        1.40434
H          1.05251       -0.48576        0.13606
H          3.55977       -0.19817        4.40014
H          4.84286        0.82269        3.71140
H          3.90715        2.80990        4.98768
H          2.68696        1.75014        5.70366
H          4.48654        0.39134        6.80027
H          5.73093        1.36298        6.01209
H          4.97177        3.40768        7.24840
H          3.67076        2.48816        8.00523
N          5.97146        2.81885       11.03560
O          6.01244        4.33347        9.33980
H          6.64969        1.79086        8.31067
H          5.32035        1.12006        9.26609
O          1.48036       -0.57708        3.33458
H         -3.71954       -1.71256       -2.51321
H          3.05011        2.04373        2.53038
H          5.86471        1.84074       11.27617
C          6.30367        3.75829       12.09112
H          5.49785        3.77582       12.84909
H          6.32681        4.74963       11.61495
C          7.64895        3.45293       12.76108
H          8.43423        3.45037       11.98414
H          7.62865        2.42807       13.17883
C          8.01736        4.44562       13.87142
H          7.20781        4.47076       14.62547
H          8.05695        5.46322       13.43959
C          9.34645        4.12487       14.56521
H         10.15346        4.07023       13.81210
H          9.30648        3.12607       15.02980
C          9.74355        5.13150       15.65202
H          8.90450        5.25743       16.36311
H          9.92817        6.12955       15.21669
C         10.95563        4.67578       16.46891
O         11.20434        3.49595       16.65775
N         11.72052        5.68647       16.98445
C         12.85827        5.45215       17.85605
H         13.73494        6.00650       17.47286
H         13.08699        4.37900       17.77522
C         12.60035        5.82782       19.32054
H         11.72297        5.26242       19.68142
H         12.32609        6.89811       19.38312
C         13.80813        5.55670       20.22658
H         14.69043        6.08988       19.82344
H         14.06033        4.48087       20.17364
C         13.59294        5.96407       21.68890
H         12.69579        5.45878       22.08830
H         13.37652        7.04262       21.75975
C         14.78644        5.65230       22.59362
H         15.70913        6.09758       22.17451
H         14.97186        4.56397       22.64042
C         14.62597        6.20219       24.01212
O         13.81302        7.06036       24.30153
N         15.48248        5.66936       24.93392
H         11.44212        6.64301       16.80201
H          0.06991        1.59854        2.17202
H          1.43157        1.78795        1.05926
H         16.17764        4.97579       24.69517
H         15.45928        6.03806       25.87705
