38
POLY_PVAC3.gamout	Energy:    -919.5239736
C         -0.05970       -0.30363        0.53635
C          0.55161        0.43022       -0.64785
H         -0.05702       -1.38608        0.34096
H          0.57691       -0.13240        1.42051
C         -1.47868        0.15932        0.88626
H          0.00596        0.23809       -1.58544
H          0.55401        1.52441       -0.50353
O          1.90138       -0.03165       -0.77995
C          2.62935        0.50754       -1.77856
O          2.19969        1.33998       -2.53786
C          4.02226       -0.06986       -1.80028
H          3.97438       -1.16044       -1.94480
H          4.51720        0.10880       -0.83322
H          4.59908        0.39167       -2.61044
O         -2.38871        0.05752       -0.24109
H         -1.45446        1.24839        1.05006
C         -2.02644       -0.51558        2.15002
H         -1.38439       -0.20780        2.99316
H         -1.93963       -1.60704        2.05720
C         -3.47734       -0.18697        2.50576
C         -2.73791       -1.14332       -0.75252
O         -2.30635       -2.20183       -0.36652
C         -3.74227       -0.96646       -1.86209
H         -3.31406       -0.34677       -2.66515
H         -4.63106       -0.43955       -1.48256
H         -4.02657       -1.94914       -2.25618
C         -3.78764        1.29269        2.68584
O         -3.71772       -0.88652        3.74734
H         -4.16155       -0.60574        1.75311
H         -3.13392        1.74989        3.44671
H         -4.83472        1.41950        2.99567
H         -3.65680        1.83300        1.73563
C         -4.94796       -1.39682        3.95660
C         -5.01366       -2.09148        5.29321
O         -5.85805       -1.30542        3.17021
H         -4.30039       -2.93022        5.31300
H         -6.03132       -2.46070        5.46707
H         -4.72062       -1.39538        6.09414
