59
POLY_PA63.gamout	Energy:   -1095.5228212
C         -4.26103       -4.85127       -9.46469
C         -3.47690       -3.68501       -8.85934
C         -3.82090       -3.40724       -7.39135
C         -3.03005       -2.24483       -6.78295
C         -3.36714       -1.97354       -5.31621
C         -2.48683       -0.89125       -4.68508
N         -2.92757       -0.42458       -3.47471
C         -2.17927        0.53610       -2.68331
C         -1.37500       -0.09530       -1.53862
C         -0.61655        0.93979       -0.70065
C          0.17518        0.33320        0.46282
C          0.95930        1.36618        1.27817
C          1.51807        0.78740        2.58028
N          2.69679        1.34005        3.00161
C          3.33612        0.98696        4.25665
C          3.16666        2.04557        5.35361
C          3.83348        1.64879        6.67590
C          3.70801        2.71452        7.76900
C          4.34453        2.31017        9.10010
C          4.43303        3.47129       10.09206
H         -4.06937       -5.79107       -8.91895
H         -5.34845       -4.66654       -9.43125
H         -3.98470       -5.01766      -10.51809
H         -2.39297       -3.88464       -8.94463
H         -3.65948       -2.77074       -9.45363
H         -4.90598       -3.20470       -7.30567
H         -3.64193       -4.32482       -6.79834
H         -1.94719       -2.43715       -6.86010
H         -3.20562       -1.32612       -7.37007
H         -4.42905       -1.68980       -5.20117
H         -3.23592       -2.89719       -4.72034
O         -1.46670       -0.48107       -5.21365
H         -1.49835        1.04753       -3.37995
H         -2.87663        1.29332       -2.28159
H         -2.05709       -0.67247       -0.88603
H         -0.66717       -0.82535       -1.96891
H          0.06841        1.50538       -1.36038
H         -1.33307        1.68429       -0.30509
H         -0.50009       -0.20073        1.15131
H          0.87504       -0.42894        0.07580
H          2.88431        0.03599        4.57680
H          4.41052        0.80079        4.07574
H          3.58998        3.00685        5.00611
H          2.08793        2.22168        5.51100
H          3.39603        0.69564        7.02761
H          4.90488        1.43881        6.49434
H          4.17818        3.65622        7.44173
H          2.64227        2.95526        7.93339
N          4.46880        3.10737       11.40833
O          4.49606        4.63481        9.73916
H          5.38170        1.96307        8.92899
H          3.81014        1.45887        9.55710
O          0.94157       -0.09262        3.19897
H         -3.75853       -0.83975       -3.07047
H          3.10463        2.08357        2.44782
H          4.43331        2.14381       11.71064
H          4.58250        3.83728       12.10187
H          0.29067        2.20311        1.55696
H          1.77250        1.81015        0.67743
