32
POLY_PTFE5.gamout	Energy:   -2376.3072086
C          0.04089        0.01102        0.02722
C         -0.99821       -0.99791       -0.60541
F          0.45020        0.85213       -0.93811
F         -0.57633        0.71076        0.99460
C          1.31356       -0.67813        0.65687
F         -0.37849       -1.69630       -1.57179
C         -2.27292       -0.31404       -1.23856
F         -1.40502       -1.83875        0.36117
F          1.93255       -1.37827       -0.30926
F          0.90542       -1.51806        1.62370
C          2.35442        0.32033        1.28671
F          1.74510        1.02389        2.25721
F          2.77201        1.16062        0.32330
C          3.61748       -0.35523        1.91284
F          4.25822       -1.06137        0.95981
F          3.23057       -1.19517        2.89387
C          4.66520        0.59754        2.53667
F          4.12157        1.30901        3.53936
F          5.14764        1.43871        1.60547
H          5.48292       -0.03474        2.92803
F         -1.86392        0.52573       -2.20503
F         -2.89364        0.38476       -0.27331
C         -3.31540       -1.31279       -1.87167
F         -3.73270       -2.15292       -0.90805
F         -2.70457       -2.01470       -2.84179
C         -4.57992       -0.64172       -2.50126
F         -4.19297        0.19821       -3.48208
F         -5.22428        0.06252       -1.55009
C         -5.62648       -1.59521       -3.12673
F         -6.10976       -2.43635       -2.19611
F         -5.08241       -2.30594       -4.12920
H         -6.44310       -0.96178       -3.51811
