97
POLY_POMS5.gamout	Energy:   -1743.7049363
C          5.80976        1.88547       -2.16008
C          6.39612        0.71684       -2.69231
C          7.78220        0.53989       -2.57758
C          8.59211        1.48744       -1.95029
C          8.01254        2.64185       -1.42323
C          6.63473        2.83038       -1.53324
C          4.31496        2.12629       -2.20785
C          3.58052        1.55089       -0.97928
C          2.03751        1.75058       -0.96191
C          1.38979        0.84266        0.12337
C         -0.10007        0.42047       -0.05986
C         -0.34426       -0.89085        0.74673
C         -1.58664       -1.75050        0.38139
C         -1.36416       -3.24257        0.77291
C         -2.30687       -4.27331        0.10079
C         -1.97376       -4.46593       -1.38556
C         -2.30622       -5.57928        0.88968
C         -3.33291       -5.87630        1.81621
C         -3.25672       -7.06325        2.55986
C         -2.19812       -7.95768        2.41111
C         -1.18363       -7.66636        1.50028
C         -1.24653       -6.48910        0.75480
C         -2.95485       -1.25914        0.86036
C         -3.95643       -1.13240       -0.11706
C         -5.26756       -0.76928        0.18698
C         -5.61242       -0.51479        1.51206
C         -4.63532       -0.63306        2.49836
C         -3.31228       -1.00143        2.20883
C         -1.08628        1.53527        0.27006
C         -1.98450        2.06942       -0.68024
C         -2.84538        3.10536       -0.29210
C         -2.84742        3.61756        1.00290
C         -1.96819        3.08688        1.94489
C         -1.10240        2.06198        1.56998
C          1.65734        3.23366       -0.96971
C          1.14270        3.74479       -2.17287
C          0.82530        5.09054       -2.34804
C          1.02236        5.97747       -1.29319
C          1.52422        5.49201       -0.08831
C          1.84381        4.13954        0.10516
C          5.56579       -0.33253       -3.39020
H          8.23345       -0.36536       -2.99231
H          9.66971        1.32359       -1.87560
H          8.63059        3.39697       -0.93165
H          6.18197        3.73814       -1.12395
H          4.12739        3.20977       -2.26556
H          3.88651        1.69119       -3.12539
H          3.78201        0.46862       -0.91948
H          4.02809        1.98587       -0.07078
H          1.68114        1.35531       -1.92908
H          1.97238       -0.09089        0.11822
H          1.53672        1.27055        1.12659
H         -0.22153        0.15458       -1.12241
H          0.53058       -1.52800        0.54699
H         -0.30972       -0.68191        1.82722
H         -1.63671       -1.72900       -0.71940
H         -0.32226       -3.51934        0.53742
H         -1.46103       -3.34883        1.86408
H         -3.32547       -3.86488        0.15305
H         -0.95006       -4.84399       -1.53607
H         -2.67023       -5.17282       -1.86021
H         -2.05192       -3.51391       -1.93279
C         -4.50707       -4.95395        2.04302
H         -4.05559       -7.28630        3.27149
H         -2.16790       -8.87484        3.00316
H         -0.34331       -8.35250        1.36997
H         -0.44272       -6.27353        0.04773
H         -3.69897       -1.34104       -1.15874
H         -6.01067       -0.68586       -0.60933
H         -6.63103       -0.22549        1.77954
H         -4.90231       -0.43626        3.54020
C         -2.35405       -1.07506        3.37710
C         -2.05879        1.57027       -2.10350
H         -3.53006        4.42560        1.27217
H         -1.95103        3.47012        2.96744
H         -0.41469        1.66216        2.31929
H          0.99536        3.05892       -3.01122
H          0.42806        5.43725       -3.30413
H          0.78610        7.03828       -1.40228
H          1.67839        6.18316        0.74404
C          2.33784        3.75027        1.48081
H         -5.08435       -4.77335        1.12101
H         -4.19520       -3.96595        2.41963
H         -5.19875       -5.38438        2.78153
H         -1.73995       -0.16167        3.45444
H         -1.66179       -1.92511        3.31294
H         -2.91003       -1.17004        4.32047
H         -2.37882        0.51732       -2.15822
H         -1.08919        1.63762       -2.62038
H         -2.78150        2.16226       -2.68269
H         -3.53282        3.52012       -1.03338
H          3.14272        3.00370        1.46071
H          1.52095        3.33180        2.09397
H          2.71888        4.63275        2.01371
H          5.13170        0.04958       -4.33059
H          4.72471       -0.67766       -2.76778
H          6.17480       -1.21243       -3.64096
