128
POLY_PMP7.gamout	Energy:   -1649.8978701
C          0.39096        1.49677       -0.47001
C         -0.84163        0.58609       -0.31146
C         -0.77505       -0.38357        0.87655
C         -2.04008       -1.23032        1.11042
H          0.52003        2.03480        0.48636
C          1.74229        0.83709       -0.84522
H          0.15784        2.27931       -1.21541
H         -1.72309        1.23877       -0.17520
H         -1.03086        0.03040       -1.24286
H          0.08771       -1.06607        0.76275
H         -0.57183        0.20079        1.79294
H         -2.89201       -0.53069        1.21712
C         -2.34853       -2.16666       -0.06359
C         -1.92816       -2.02838        2.41550
H         -1.75923       -1.36792        3.28157
H         -1.08649       -2.74206        2.37298
H         -2.84565       -2.60666        2.60939
H         -1.50383       -2.85172       -0.25515
H         -2.54975       -1.61495       -0.99453
H         -3.23503       -2.78634        0.14735
C          1.91097        0.63215       -2.37036
H          1.79374       -0.14525       -0.35155
C          2.92336        1.68359       -0.29433
H          2.64567        2.06565        0.70338
H          3.01893        2.58442       -0.92790
C          4.30938        0.98524       -0.18042
H          1.69894        1.59823       -2.86491
C          1.10045       -0.47298       -3.07564
H          2.97558        0.42622       -2.58135
H          0.02395       -0.26006       -2.94827
C          1.38125       -1.86052       -2.49239
C          1.38077       -0.45856       -4.58328
H          1.09628       -1.93276       -1.43316
H          2.45392       -2.10887       -2.56473
H          0.82281       -2.64037       -3.03339
H          2.44169       -0.67880       -4.79725
H          1.15211        0.52426       -5.02631
H          0.77341       -1.21213       -5.10979
H          4.35069        0.17207       -0.92416
C          4.52044        0.37615        1.22642
C          5.45178        1.98614       -0.51809
H          5.47998        2.73675        0.29300
H          5.15084        2.54992       -1.41814
C          6.89408        1.43899       -0.74698
C          3.63275       -0.80326        1.66790
H          4.40480        1.19027        1.96613
H          5.57049        0.04547        1.31882
C          3.81044       -2.03721        0.78009
H          2.57530       -0.48859        1.60599
C          3.90398       -1.15806        3.13571
H          4.85874       -2.38264        0.78719
H          3.53371       -1.84346       -0.26575
H          3.18337       -2.87163        1.13260
H          3.73774       -0.29272        3.79730
H          4.94564       -1.49432        3.28158
H          3.24184       -1.97002        3.47598
C          7.18943        1.21062       -2.24880
H          7.00046        0.47677       -0.21821
C          7.93793        2.41717       -0.13406
H          7.57905        2.69939        0.87059
H          7.90175        3.35274       -0.72098
C          9.42461        1.95600       -0.01189
H          7.00962        2.16630       -2.77542
C          6.43676        0.09316       -2.99357
H          8.26843        1.00893       -2.37060
H          5.35098        0.27414       -2.89222
C          6.74020       -1.29261       -2.42016
C          6.75544        0.13324       -4.49246
H          6.42233       -1.38348       -1.37154
H          7.82145       -1.51163       -2.45968
H          6.22089       -2.08037       -2.98817
H          7.82858       -0.04455       -4.68357
H          6.49803        1.10976       -4.93275
H          6.19085       -0.63844       -5.03950
H          9.59920        1.12504       -0.71579
C          9.74470        1.46451        1.41976
C         10.37816        3.11929       -0.41795
H         10.24299        3.92797        0.32368
H         10.00588        3.54074       -1.36778
C         11.90430        2.83554       -0.58231
C          9.11462        0.14699        1.90938
H          9.47219        2.27235        2.12401
H         10.83915        1.35107        1.51947
C          9.59803       -1.05717        1.09854
H          8.01625        0.21649        1.80020
C          9.40152       -0.06564        3.40098
H          9.01585        0.76904        4.00810
H         10.48606       -0.14527        3.59552
H          8.92985       -0.99061        3.76914
H         10.69618       -1.15634        1.15274
H          9.32328       -0.97491        0.03641
H          9.15961       -1.99394        1.47706
C         12.27513        2.57829       -2.06130
H         12.16634        1.94301        0.00819
C         12.72536        4.03708       -0.02869
H         12.33784        4.29012        0.97381
H         12.47926        4.91132       -0.65957
C         14.26945        3.95025        0.06675
H         14.66157        3.47444       -0.84851
C         14.79765        3.17011        1.29730
C         14.84735        5.37976        0.09178
H         14.50714        5.93768        0.98264
H         14.53404        5.95033       -0.79618
H         15.94845        5.36814        0.11060
H         11.92034        3.44229       -2.65320
C         11.78854        1.28336       -2.73565
H         13.37401        2.59541       -2.16165
H         10.68981        1.21945       -2.63472
C         12.40106        0.03945       -2.09040
C         12.10209        1.30862       -4.23627
H         12.13746       -0.04494       -1.02604
H         13.50137        0.06429       -2.15990
H         12.05632       -0.88016       -2.58768
H         13.18966        1.37701       -4.41775
H         11.62655        2.16897       -4.73344
H         11.74022        0.39479       -4.73327
C         14.79989        1.62772        1.28267
H         14.24022        3.51602        2.18694
H         15.84283        3.48698        1.46992
C         15.65072        1.06838        0.14211
H         13.76248        1.27112        1.14977
C         15.30121        1.06793        2.62315
H         14.69154        1.42581        3.46842
H         16.34654        1.36737        2.81778
H         15.26636       -0.03329        2.63017
H         16.68718        1.44075        0.20932
H         15.26552        1.35181       -0.84727
H         15.68625       -0.03173        0.17557
