72
POLY_PECH7.gamout	Energy:   -4567.2376504
C         -0.06941        0.21614       -0.02169
C          1.06102       -0.21396        0.90749
O         -1.25777       -0.03329        0.68977
O          2.27811       -0.09959        0.20941
C         -2.46296        0.09684       -0.02649
C         -3.56812       -0.60230        0.75788
O         -4.75523       -0.33296        0.05436
C         -5.95390       -0.76608        0.65277
C          3.45179       -0.09018        0.98589
C          4.58487        0.19448        0.00647
H          4.33870        1.12278       -0.54077
H          4.64282       -0.63440       -0.72458
O          5.78143        0.32239        0.73335
H         -0.02135       -0.42361       -0.93006
C          0.07845        1.64863       -0.53204
H         -2.38626       -0.36011       -1.03162
H         -2.75247        1.15663       -0.14722
H         -3.60511       -0.13947        1.76875
C         -3.29198       -2.08471        1.00642
H          0.86605       -1.25574        1.21992
H          1.05071        0.42828        1.80888
C          3.67439       -1.34905        1.82236
H          3.41841        0.74328        1.72223
H         -2.30245       -2.18582        1.47015
Cl        -3.28602       -3.07890       -0.50529
H         -4.04447       -2.52709        1.67081
H          1.07180        1.75914       -0.98543
Cl        -0.06388        2.89474        0.77103
H         -0.68547        1.88779       -1.28215
Cl         3.67815       -2.87161        0.84568
H          2.89465       -1.46513        2.58499
H          4.64986       -1.27340        2.31889
H         -5.96566       -0.54774        1.73768
H         -6.10691       -1.85116        0.51171
C         -7.11046       -0.03367       -0.01379
H         -7.05760       -0.24292       -1.10475
C         -7.01349        1.48698        0.10528
O         -8.27557       -0.59265        0.53584
C          6.97677        0.16625        0.01026
C          7.20946        1.21335       -1.07840
H          6.98128       -0.80937       -0.52389
C          8.08265        0.12250        1.05782
H          7.82923       -0.66862        1.78742
H          8.11033        1.09194        1.59142
O          9.29851       -0.14053        0.40529
Cl         7.16593        2.91580       -0.46544
H          6.45231        1.14536       -1.86935
H          8.20081        1.04752       -1.51849
H         -6.03421        1.80776       -0.27231
Cl        -7.16318        2.08946        1.80466
H         -7.80032        1.98427       -0.47487
C         -9.48989       -0.23035       -0.07483
H         -9.40543       -0.23565       -1.17833
H         -9.82996        0.77249        0.24181
C        -10.55356       -1.23588        0.34599
H        -10.55413       -1.25568        1.45858
C        -10.24164       -2.67135       -0.06956
O        -11.76996       -0.74380       -0.16306
C         10.47512        0.20685        1.10151
H        -12.47401       -1.37857        0.02114
C         10.64972       -0.53178        2.43177
H         10.42976        1.28323        1.38381
C         11.62960       -0.00286        0.13798
H         11.47898        0.60713       -0.76402
H         11.68466       -1.06099       -0.15747
H         12.58548        0.28423        0.60218
H         -9.25606       -2.95804        0.31956
Cl       -10.21178       -2.92325       -1.86134
H        -10.99713       -3.36190        0.33204
Cl        10.68259       -2.33316        2.27217
H          9.83672       -0.29773        3.13090
H         11.59793       -0.23101        2.89965
