86
POLY_IPB7.gamout	Energy:   -1100.3352653
C         -0.16702       -0.29517       -0.46221
C          1.31206       -0.09781       -0.05438
C         -1.08628        0.43860        0.54294
H         -0.30043        0.18956       -1.44514
C         -0.54972       -1.77536       -0.66453
C         -0.47117       -2.66816        0.57667
H          1.46332       -0.51326        0.95826
H          1.49171        0.98705        0.05520
C          2.39899       -0.69449       -0.97867
C          2.28968       -0.22015       -2.44156
H          2.24026       -1.78665       -1.00428
C          3.79508       -0.45017       -0.36050
H          3.77434       -0.81467        0.68231
H          3.96339        0.63869       -0.27457
C          5.02017       -1.06300       -1.07953
C          2.44969        1.28427       -2.67684
H          1.31687       -0.54369       -2.84871
H          3.04065       -0.75770       -3.04459
H          3.42998        1.65619       -2.33777
H          1.67784        1.87207       -2.15417
H          2.36608        1.51754       -3.75003
H          5.07051       -0.60814       -2.08424
C          4.89653       -2.58283       -1.30752
C          6.31720       -0.66576       -0.33606
H          6.26389       -1.03185        0.70502
H          6.33710        0.43573       -0.24864
C          7.65575       -1.14268       -0.93487
H          4.02998       -2.77533       -1.96247
C          4.76662       -3.43677       -0.04513
H          5.77040       -2.92753       -1.88424
H          3.86158       -3.18749        0.53163
H          5.62971       -3.31587        0.62976
H          4.70395       -4.50562       -0.30371
H         -1.14270       -2.32590        1.38061
H          0.54650       -2.71039        0.99787
H         -0.76198       -3.70129        0.32863
H          0.09017       -2.20337       -1.45406
H         -1.57307       -1.82484       -1.07291
H         -0.74925        1.48866        0.60934
H         -0.91505        0.02227        1.55171
C         -2.60963        0.41358        0.27466
H         -2.92289       -0.64478        0.28237
C         -2.99258        0.95741       -1.11433
C         -3.36011        1.11827        1.43088
H         -2.50108        0.34309       -1.88738
C         -2.66651        2.43020       -1.36548
H         -4.07248        0.79870       -1.27216
H         -1.58699        2.63686       -1.28440
H         -3.18026        3.09782       -0.65520
H         -2.98032        2.72914       -2.37784
H         -3.00418        2.16184        1.50364
H         -3.04421        0.64631        2.37861
C         -4.90407        1.14648        1.37636
C         -5.53530       -0.24714        1.20597
H         -5.18960        1.72214        0.47821
C         -5.45582        1.91042        2.59869
C         -5.25940       -1.24852        2.32889
H         -5.19699       -0.67924        0.24942
H         -6.62607       -0.13070        1.09278
H         -5.62475       -0.89162        3.30564
H         -4.18456       -1.46367        2.44077
H         -5.76368       -2.20635        2.12522
C          7.85013       -0.76266       -2.41434
H          7.66396       -2.24696       -0.90078
C          8.83189       -0.67236       -0.06776
H          8.74885       -1.06017        0.96037
H          8.88297        0.42747        0.00230
H          9.79143       -1.02482       -0.47930
C          7.83114        0.73488       -2.72889
H          7.08012       -1.26729       -3.02149
H          8.81222       -1.18719       -2.75095
H          8.62292        1.28047       -2.19029
H          6.86969        1.20420       -2.46395
H          7.99135        0.90768       -3.80472
H         -4.96372        2.89779        2.63719
H         -5.13747        1.39754        3.52318
C         -6.97857        2.10205        2.66331
H         -7.47348        1.12586        2.80348
C         -7.62007        2.80841        1.46413
H         -7.20700        2.67981        3.57672
H         -7.48891        2.19901        0.55194
C         -7.10033        4.22428        1.21344
H         -8.70990        2.85149        1.63363
H         -6.03125        4.23614        0.94589
H         -7.22036        4.85753        2.10948
H         -7.64785        4.70811        0.38943
