37
POLY_PEO5.gamout	Energy:    -769.3456564
O         -9.34027       -2.20963       -5.29812
C        -10.23211       -3.08307       -5.95546
H        -10.83834       -3.68386       -5.24771
H         -9.70929       -3.79529       -6.62564
C        -11.17182       -2.22890       -6.78638
H        -10.58398       -1.63226       -7.51434
H        -11.69505       -1.51009       -6.12231
O        -12.08144       -3.07901       -7.43465
C        -13.03766       -2.41016       -8.21267
H        -12.56394       -1.83699       -9.03659
H        -13.61776       -1.68505       -7.60515
C        -13.97555       -3.44739       -8.79905
H        -14.46487       -4.01561       -7.98093
H        -13.39145       -4.17721       -9.39730
O        -14.91591       -2.77312       -9.59151
C        -15.82982       -3.60934      -10.24978
H        -16.45367       -4.17946       -9.53048
H        -15.30796       -4.35067      -10.88954
C        -16.71240       -2.72829      -11.11063
H        -16.07682       -2.16112      -11.82174
H        -17.22854       -1.98179      -10.47182
O        -17.63166       -3.54569      -11.78465
C        -18.45543       -2.84802      -12.68011
H        -17.86237       -2.37839      -13.49205
H        -19.00768       -2.03291      -12.16842
C        -19.44108       -3.82877      -13.28470
H        -20.06284       -4.27885      -12.48262
H        -18.88605       -4.65866      -13.77035
O        -20.22405       -3.12788      -14.21090
C        -21.17290       -3.92312      -14.87952
H        -21.89745       -4.35200      -14.15406
H        -20.67225       -4.78430      -15.37170
C        -21.88977       -3.06872      -15.90605
H        -21.17407       -2.66260      -16.63770
H        -22.39961       -2.22349      -15.41782
H        -22.64206       -3.66394      -16.44719
H         -8.73837       -2.73365       -4.75638
