51
POLY_PVA7.gamout	Energy:   -1076.6854070
C          0.15173        0.12925       -0.20779
C          1.65444        0.11835        0.03563
H          2.19446        0.06867       -0.92209
H          1.93658       -0.76567        0.63153
H          1.97749        1.02155        0.57784
O         -0.17853       -1.05329       -0.91906
H         -0.10056        1.01066       -0.82975
C         -0.65415        0.25290        1.10418
H         -1.09126       -0.92074       -1.21854
H         -0.61317        1.30442        1.44097
H         -0.18648       -0.35848        1.89647
C         -2.11118       -0.19724        0.95909
H         -2.11350       -1.30049        0.89197
O         -2.62460        0.32431       -0.26720
C         -2.98943        0.19533        2.16790
H         -2.70675        1.19575        2.54032
H         -2.78722       -0.51986        2.98472
C         -4.49235        0.22223        1.85234
O         -4.79909       -0.88681        1.00447
H         -4.69912        1.15017        1.28791
C         -5.37939        0.24758        3.11801
H         -3.50443       -0.08250       -0.35291
H         -5.73220       -0.75154        0.75884
H         -5.39655        1.28289        3.50152
H         -4.93616       -0.37991        3.91069
C         -6.81372       -0.24633        2.87470
H         -6.78500       -1.35011        2.82333
O         -7.25264        0.24209        1.60334
C         -7.78836        0.14213        4.00975
H         -7.53840        1.14186        4.40533
H         -7.65247       -0.57394        4.83925
C         -9.26051        0.16599        3.57449
O         -9.49635       -0.95135        2.71285
H         -9.41827        1.08862        2.98606
C        -10.24556        0.19858        4.76448
H         -8.11740       -0.18534        1.46520
H        -10.40826       -0.82525        2.39395
H        -10.31228        1.23945        5.12616
H         -9.85912       -0.40601        5.60342
C        -11.64587       -0.32536        4.42110
H        -11.58881       -1.42806        4.37111
O        -12.00409        0.15822        3.12148
C        -12.70521        0.04434        5.48372
H        -12.48281        1.02952        5.92818
H        -12.65511       -0.69629        6.29974
C        -14.12262        0.10784        4.92101
O        -14.33411       -1.01733        4.06883
H        -14.24842        1.04707        4.34938
H        -14.85249        0.12320        5.75107
H        -12.84608       -0.28314        2.91268
H        -15.25287       -1.01599        3.77017
