55
PREGNENOLONE.gamout	Energy:    -968.6075100
O         -4.42499       -1.23641       -3.15965
O          5.17180        0.36274        1.68158
C          2.04472        0.30208        0.48761
C          1.25953       -0.95342        0.02712
C         -0.25353       -0.91424        0.30735
C         -0.87945        0.35721       -0.33511
C         -2.41855        0.46618       -0.06888
C          1.42661        1.51420       -0.22116
C          3.49168       -0.11089        0.03119
C         -0.08476        1.62306        0.05445
C          2.10791       -2.12819        0.53514
C          3.56873       -1.63356        0.34606
C         -0.94642       -2.19405       -0.18884
C         -3.09384       -0.87953       -0.34152
C          2.01467        0.50198        2.01363
C         -3.09386        1.50503       -1.02313
C         -2.42714       -2.04336       -0.38266
C         -2.72012        0.87866        1.39044
C         -4.53680       -0.78378       -0.75500
C         -3.52586        0.89393       -2.35903
C          4.62696        0.70217        0.65260
C         -4.59182       -0.21614       -2.19417
C          5.06010        1.95723       -0.08371
H          1.35569       -0.96223       -1.07718
H         -0.40827       -0.85662        1.39993
H         -0.76613        0.23417       -1.42983
H          1.59272        1.41567       -1.30898
H          1.91355        2.45202        0.09122
H          3.52995        0.04860       -1.05952
H         -0.23973        1.84908        1.12145
H         -0.47552        2.49396       -0.49402
H          1.91272       -3.05735       -0.02026
H          1.89440       -2.34091        1.59630
H          4.18127       -1.79860        1.24412
H          4.06589       -2.16349       -0.48090
H         -0.74060       -3.02929        0.50415
H         -0.50262       -2.51294       -1.15508
H          2.44232        1.48003        2.28382
H          0.99251        0.47344        2.41356
H          2.60247       -0.25732        2.54588
H         -2.42258        2.35806       -1.19896
H         -3.97797        1.92950       -0.51966
H         -2.98771       -2.95819       -0.60441
H         -2.48398        1.93855        1.57238
H         -3.78905        0.74238        1.61392
H         -2.15716        0.26929        2.11254
H         -5.03497       -1.76352       -0.74748
H         -5.10374       -0.12351       -0.07727
H         -3.89129        1.67236       -3.04419
H         -2.65066        0.44057       -2.85666
H         -5.59981        0.19071       -2.37627
H          5.52028        1.67604       -1.04663
H          4.19780        2.60066       -0.32101
H          5.79118        2.50708        0.52223
H         -3.58470       -1.67539       -2.95659
