53
PROGESTERONE.gamout	Energy:    -967.4258320
O          5.66468       -1.17877       -1.40199
O         -5.72154        0.87205        1.43095
C          1.85222        0.77527       -0.13600
C          2.45538       -0.58569       -0.57360
C          0.39958        1.00973       -0.59052
C         -0.49631       -0.14434       -0.06166
C         -2.01966        0.00006       -0.44090
C          3.89303       -0.44675        0.04455
C          1.57013       -1.69225        0.01219
C          0.09686       -1.52951       -0.40481
C          2.94280        1.79975       -0.48464
C         -0.14633        2.35644       -0.10328
C          4.27068        1.03735       -0.21945
C         -2.49665        1.40549       -0.07834
C          2.55192       -0.73367       -2.10161
C         -1.61493        2.55295       -0.49650
C         -2.84469       -1.04465        0.34891
C         -2.24963       -0.20476       -1.95682
C          4.93421       -1.44134       -0.47029
C         -4.35143       -0.78593        0.36114
C         -3.67579        1.64114        0.53993
C         -4.68037        0.60842        0.85638
C          5.03571       -2.77299        0.24996
H          1.81663        0.73212        0.97047
H          0.37279        1.01208       -1.69563
H         -0.46723       -0.05254        1.04127
H          3.78160       -0.61665        1.12902
H          1.64262       -1.66420        1.11398
H          1.91480       -2.69039       -0.30216
H          0.00623       -1.71883       -1.48649
H         -0.49004       -2.31955        0.08669
H          2.86384        2.71295        0.12342
H          2.87031        2.11343       -1.53980
H          0.45112        3.18846       -0.50691
H         -0.05411        2.40690        0.99751
H          4.95233        1.09412       -1.08003
H          4.81382        1.45203        0.64315
H          3.25892       -0.02183       -2.54724
H          2.90256       -1.74211       -2.36982
H          1.58015       -0.58841       -2.59099
H         -1.67393        2.64982       -1.59785
H         -2.00150        3.49579       -0.08507
H         -2.48601       -1.05495        1.39283
H         -2.65386       -2.04782       -0.05591
H         -1.63212        0.46894       -2.56724
H         -2.01627       -1.23670       -2.25267
H         -3.29906       -0.00904       -2.21855
H         -4.88133       -1.51302        0.99165
H         -4.78206       -0.88149       -0.65304
H         -3.97274        2.66215        0.79325
H          5.39942       -2.60477        1.27825
H          4.05132       -3.25929        0.34143
H          5.73613       -3.42954       -0.28174
