11
PROPYL_IODIDE.gamout	Energy:    -416.0616315
I          2.58376       -0.61764        0.76283
C         -0.51034       -0.52864        0.34849
C          0.72951        0.28264        0.00796
C         -1.78264        0.13741       -0.19163
H         -0.41120       -1.54534       -0.06686
H         -0.58395       -0.64665        1.44249
H          0.89060        0.37303       -1.07442
H          0.71567        1.28556        0.45434
H         -2.67179       -0.46036        0.06387
H         -1.92217        1.14471        0.23463
H         -1.75239        0.23855       -1.28942
