17
PROPYLENE_GLYCOL_DINITRATE.gamout	Energy:    -677.6682586
C         51.83806       29.70099       -0.13505
C         53.15484       28.92202       -0.07382
O         53.81111       29.08028        1.20210
C         52.91524       27.42298       -0.21644
O         51.96223       31.05067       -0.59155
N         54.77366       30.11802        1.30377
N         52.11832       32.04102        0.41728
O         55.29543       30.14852        2.37593
O         54.95294       30.81187        0.33462
O         52.15505       33.14457       -0.03287
O         52.18195       31.66476        1.55997
H         51.19167       29.24443       -0.89847
H         51.32535       29.66825        0.83732
H         53.82585       29.28766       -0.86449
H         53.86413       26.88090       -0.10547
H         52.49569       27.19781       -1.20852
H         52.21701       27.05531        0.55205
