40
PROPRANOLOL.gamout	Energy:    -826.4305124
O          0.16325        0.79384        0.28137
O          2.22275        1.57290        2.03140
N          3.46951       -0.46574       -0.73904
C          2.46655        1.31177        0.66417
C          2.97470       -0.13126        0.58685
C          3.77538       -1.88110       -0.96959
C          1.24396        1.55267       -0.21842
C          4.66491       -2.00638       -2.20627
C          2.49246       -2.69830       -1.14058
C         -1.03097        0.78976       -0.35962
C         -2.07791        0.08999        0.32738
C         -3.36805        0.00059       -0.28176
C         -1.27995        1.39568       -1.58008
C         -1.86399       -0.50408        1.59801
C         -3.58764        0.61924       -1.54412
C         -2.56820        1.30126       -2.16611
C         -4.39392       -0.69991        0.40623
C         -2.88480       -1.17325        2.24051
C         -4.16054       -1.27552        1.63707
H          3.26276        1.98279        0.26910
H          2.13213       -0.79075        0.84269
H          3.72918       -0.25430        1.39180
H          4.33580       -2.30634       -0.10404
H          4.30253        0.08885       -0.93541
H          1.50236        1.25361       -1.24965
H          0.97732        2.62882       -0.22385
H          4.92343       -3.05858       -2.39952
H          4.15030       -1.60614       -3.09562
H          5.60900       -1.45014       -2.07942
H          1.85020       -2.64973       -0.24851
H          2.72845       -3.75949       -1.31855
H          1.90945       -2.31602       -1.99429
H          1.82837        2.45038        2.12312
H         -0.49594        1.93909       -2.10567
H         -0.87972       -0.40712        2.05594
H         -4.57381        0.54818       -2.00731
H         -2.74270        1.78030       -3.13281
H         -5.38045       -0.77432       -0.05791
H         -2.71101       -1.62535        3.22001
H         -4.96375       -1.80802        2.15117
