27
PROPYL_GALLATE.gamout	Energy:    -763.4483082
C          4.94997        0.31703        1.65671
C          6.22638        0.87793        1.46176
O          4.00657        0.61342        0.72772
C          4.71424       -0.49821        2.76608
C          5.73803       -0.76171        3.68825
C          7.01112       -0.20436        3.49864
C          5.53515       -1.62196        4.88349
C          7.24478        0.60580        2.39369
O          8.44298        1.20233        2.10467
O          6.46083        1.66561        0.39167
O          6.39395       -1.86935        5.70279
O          4.28118       -2.11123        4.97010
C          3.99850       -2.94815        6.09845
C          2.55281       -3.40058        6.00706
C          2.15582       -4.30588        7.17405
H          3.17894        0.17653        0.96572
H          3.72570       -0.93523        2.91986
H          7.79563       -0.42003        4.22721
H          9.09884        0.97931        2.77704
H          7.38811        1.94693        0.44051
H          4.69494       -3.80409        6.09916
H          4.19286       -2.38273        7.02625
H          1.90092       -2.51052        5.97665
H          2.40591       -3.92744        5.04811
H          2.26888       -3.78909        8.14193
H          2.77717       -5.21629        7.20894
H          1.10544       -4.62392        7.08923
