7
PROPADIENE.gamout	Energy:    -116.4937381
C          3.13375        0.81572        0.67383
C          1.94778        1.36795        0.73198
C          0.76161        1.91970        0.79015
H          3.34418       -0.01269       -0.01233
H          3.95651        1.16307        1.30924
H         -0.00704        1.54746        1.47718
H          0.49667        2.77233        0.15445
