23
PROPYL_BUTANOATE.gamout	Energy:    -425.0484292
O          1.13887        0.02829       -0.03114
C          0.46677       -0.96929       -0.65080
C          1.13385       -2.14895       -1.38486
O         -0.73600       -0.92696       -0.62373
C          2.54825        0.21709        0.08495
C          2.63978       -2.39217       -1.53559
C          2.76621        1.49481        0.88298
C          2.91404       -3.67217       -2.33375
C          4.24680        1.81964        1.08606
H          0.67174       -2.11216       -2.38680
H          0.67087       -3.03223       -0.91119
H          3.01278        0.30775       -0.91148
H          3.01413       -0.63842        0.60263
H          3.12254       -2.47968       -0.54877
H          3.12321       -1.54395       -2.04695
H          2.25640        1.38545        1.85518
H          2.25651        2.32120        0.35914
H          2.47939       -4.55659       -1.83793
H          3.99573       -3.84792       -2.44244
H          2.48066       -3.61643       -3.34663
H          4.76734        1.01570        1.63366
H          4.36927        2.74691        1.66587
H          4.76843        1.95906        0.12407
