10
PYRIMIDINE.gamout	Energy:    -263.9732772
N          0.98423       -1.63115        0.08252
N         -1.36523       -1.20465        0.09207
C          0.17628        0.60750       -0.14110
C          1.21367       -0.32405       -0.06467
C         -1.12169        0.09985       -0.05524
C         -0.29637       -2.00256        0.15321
H          0.36964        1.67517       -0.26134
H          2.26156       -0.00513       -0.12402
H         -1.99095        0.76692       -0.10698
H         -0.49055       -3.07583        0.27435
