43
SCOPOLAMINE.gamout	Energy:   -1014.7103072
O          5.34354        0.05982        1.05799
O          0.31098       -0.50018       -0.92972
O         -0.46528       -1.69500        0.82053
O         -4.06595       -2.30334       -1.34300
N          3.80258        1.43704       -0.59959
C          4.46936       -0.68764        0.21617
C          3.94650        0.09029        1.34699
C          4.01502        0.05979       -1.04558
C          3.19887        1.27700        0.72350
C          2.64295       -0.48387       -1.48655
C          1.72725        0.88177        0.49951
C          1.62695       -0.40579       -0.33885
C          4.90198        2.37473       -0.73257
C         -0.64756       -1.13840       -0.23809
C         -1.99293       -1.04060       -0.93718
C         -2.81478       -2.32557       -0.70075
C         -2.71139        0.21910       -0.47478
C         -2.90830        0.47057        0.89052
C         -3.20231        1.13975       -1.40657
C         -3.58625        1.61506        1.31051
C         -3.88414        2.28475       -0.98904
C         -4.07915        2.52501        0.37193
H          4.58273       -1.77752        0.23373
H          3.62980       -0.35909        2.29459
H          4.73608        0.01842       -1.87549
H          3.26913        2.20785        1.30615
H          2.28489        0.13096       -2.32475
H          2.71807       -1.52581       -1.83633
H          1.19954        0.73269        1.45436
H          1.23246        1.70263       -0.03984
H          1.73881       -1.27393        0.32529
H          4.54466        3.38185       -0.46615
H          5.20983        2.40960       -1.78870
H          5.79089        2.14374       -0.11642
H         -1.78984       -0.94092       -2.01554
H         -3.00746       -2.43649        0.37624
H         -2.20637       -3.20031       -1.00694
H         -2.51737       -0.23241        1.62941
H         -3.04765        0.95904       -2.47337
H         -3.92330       -2.26534       -2.29805
H         -3.72978        1.79654        2.37807
H         -4.26402        2.99246       -1.73005
H         -4.61084        3.42085        0.70005
