5
SO4-2.gamout	Energy:    -698.2764587
S          0.00044       -0.00007        0.00011
O          1.35331       -0.53613       -0.34966
O          0.12569        0.57886        1.37450
O         -0.36412        0.95210       -1.09569
O         -1.11576       -0.99470        0.07063
