55
STEARATE-1.gamout	Energy:    -856.3206347
C          1.24239       -0.04632       -0.07086
C          0.66747        0.72457        1.12286
C          2.77124       -0.06980       -0.10672
C         -0.86493        0.75622        1.17115
C         -1.44042        1.52743        2.36667
C         -2.97359        1.55920        2.41477
C         -3.54927        2.33016        3.61070
C         -5.08263        2.36199        3.65856
C         -5.65954        3.13281        4.85409
C         -7.19316        3.16485        4.90205
C         -7.77048        3.93584        6.09763
C         -9.30439        3.96921        6.14883
C         -9.87922        4.74074        7.34608
C        -11.41342        4.77890        7.40720
C        -11.98335        5.55250        8.60722
C        -13.51722        5.59319        8.67685
C        -14.09083        6.36571        9.86436
C        -15.67281        6.41484        9.93004
O        -16.27116        5.81863        9.00529
O        -16.12972        7.04754       10.90418
H          0.85926        0.39728       -1.00869
H          0.85785       -1.08309       -0.05323
H          1.05390        1.76169        1.10502
H          1.05303        0.28072        2.06072
H          3.18740        0.95069       -0.16161
H          3.14501       -0.62872       -0.97917
H          3.18751       -0.54694        0.79707
H         -1.24979       -0.28138        1.18775
H         -1.24897        1.19996        0.23276
H         -1.05485        2.56473        2.34985
H         -1.05600        1.08342        3.30477
H         -3.35879        0.52175        2.43109
H         -3.35779        2.00331        1.47664
H         -3.16359        3.36747        3.59418
H         -3.16490        1.88583        4.54869
H         -5.46737        1.32434        3.67450
H         -5.46614        2.80588        2.72002
H         -5.27371        4.17012        4.83766
H         -5.27520        2.68855        5.79220
H         -7.57776        2.12709        4.91790
H         -7.57641        3.60847        3.96323
H         -7.38405        4.97304        6.08069
H         -7.38496        3.49176        7.03547
H         -9.68948        2.93147        6.16475
H         -9.68881        4.41278        5.21025
H         -9.49056        5.77749        7.32746
H         -9.48878        4.29683        8.28233
H        -11.80079        3.74170        7.42649
H        -11.80338        5.22134        6.47030
H        -11.58899        6.58817        8.58421
H        -11.58364        5.10949        9.54127
H        -13.92355        4.56603        8.70031
H        -13.92917        6.02842        7.74879
H        -13.72673        7.41201        9.86197
H        -13.73398        5.93768       10.82163
