45
SUCROSE.gamout	Energy:   -1296.2902035
O         -1.33484        2.78510       -0.06244
C         -0.08431        2.73119        0.64407
C         -1.31358        2.50292       -1.44039
C         -0.39620        2.90077        2.12510
C          0.88168        3.74858        0.03674
O          2.10106        3.70890        0.73939
C          1.07159        3.37040       -1.42869
C         -0.26848        3.36177       -2.16589
O          1.96597        4.29293       -2.01232
O         -0.10223        2.98222       -3.51471
O         -1.03366        1.15261       -1.73925
O         -0.92846        1.73802        2.71624
C         -2.03172        0.17115       -1.42977
C         -1.90682       -0.32164        0.04417
O         -3.33033        0.69988       -1.56244
C         -1.85374       -0.94011       -2.46435
C         -3.32920       -0.23018        0.58241
O         -1.32309       -1.61367        0.09702
C         -3.93734        0.86598       -0.29100
O         -3.33884        0.08830        1.95807
C         -5.44671        0.76994       -0.40397
O         -2.66911       -2.05006       -2.20633
O         -6.01718        0.83509        0.89961
H          0.37796        1.73551        0.51664
H         -2.32008        2.75387       -1.80164
H          0.55153        3.11770        2.64116
H         -1.05899        3.78120        2.24518
H          0.42500        4.76071        0.07827
H          2.74840        4.18629        0.19924
H          1.49442        2.34424       -1.45868
H         -0.64530        4.39775       -2.17126
H          1.97789        4.10864       -2.96367
H         -0.09312        2.01169       -3.52167
H         -1.83042        1.55994        2.40291
H         -1.29099        0.38622        0.60960
H         -2.15065       -0.51357       -3.43435
H         -0.77964       -1.19552       -2.50827
H         -3.84265       -1.19046        0.38267
H         -1.10849       -1.81438        1.01829
H         -3.65299        1.84305        0.14645
H         -4.27317        0.20864        2.19413
H         -5.84180        1.55275       -1.07394
H         -5.71790       -0.20654       -0.83548
H         -2.28628       -2.47868       -1.42468
H         -6.10305        1.76472        1.14866
