30
SULFAMERAZINE.gamout	Energy:   -1192.7802584
S         -0.65117       -3.54182       -3.51088
O         -0.09262       -4.71706       -2.85139
O         -1.12426       -3.58335       -4.89659
N          0.54362       -2.31680       -3.59869
N          1.35892       -2.41729       -1.41558
N          2.57124       -1.32618       -3.16304
N         -5.03773       -1.36282       -0.11977
C         -1.93674       -2.86691       -2.48833
C         -1.92651       -3.09039       -1.10738
C         -2.98769       -2.16202       -3.08517
C         -4.03057       -1.87694       -0.90195
C         -2.96163       -2.59700       -0.32350
C         -4.02242       -1.66970       -2.29928
C          1.52991       -2.02036       -2.67671
C          2.33004       -2.12288       -0.54488
C          3.46507       -1.40719       -0.94556
C          3.52265       -1.02166       -2.28528
C          2.13448       -2.58910        0.86831
H          0.72174       -2.02738       -4.55625
H         -1.09899       -3.64470       -0.66514
H         -2.99188       -2.02016       -4.16695
H         -2.95562       -2.76818        0.75659
H         -4.84580       -1.12083       -2.76449
H          4.26378       -1.15959       -0.24623
H          4.37843       -0.45164       -2.66578
H          1.21188       -2.15381        1.28575
H          2.00994       -3.68388        0.88842
H          2.98165       -2.31345        1.51104
H         -5.14406       -1.71534        0.82287
H         -5.89627       -1.06931       -0.56792
