13
TDI-1.gamout	Energy:    -746.3265251
N         -1.00188       -0.45489       -0.26569
C          0.31429       -0.76389       -0.20052
C          0.46351       -2.16654       -0.39137
N         -0.76263       -2.71260       -0.57293
C          1.66388       -2.93389       -0.40238
C          1.33110        0.21015        0.01909
N          2.65053       -3.55210       -0.40800
N          2.16953        0.99756        0.19773
C         -1.57314       -1.64785       -0.48938
C         -3.06020       -1.77068       -0.59751
F         -3.44052       -2.99592       -0.99974
F         -3.68908       -1.53720        0.58293
F         -3.58838       -0.88554       -1.47483
