21
TERT-AMYL_METHYL_ETHER.gamout	Energy:    -311.8459895
O          0.87613        0.39148        1.45191
C          0.96339       -0.66781        0.48592
C          2.31994       -0.64719       -0.25579
C          0.80585       -1.93216        1.33114
C         -0.18728       -0.58782       -0.53041
C          3.55920       -0.64924        0.64094
C          0.90591        1.72048        1.00390
H          2.34680       -1.51747       -0.93443
H          2.34855        0.23843       -0.91397
H         -0.19073       -1.94867        1.79733
H          1.55111       -1.95184        2.13866
H          0.92349       -2.83801        0.71651
H         -0.20587       -1.49145       -1.15974
H         -1.15318       -0.51481       -0.00674
H         -0.08992        0.27779       -1.20335
H          3.65193       -1.58375        1.21651
H          3.52519        0.17979        1.36480
H          4.47530       -0.54080        0.03948
H          0.81148        2.35854        1.89586
H          0.07112        1.96808        0.32031
H          1.85221        1.98887        0.49421
