14
TERT-BUTYL_CHLORIDE.gamout	Energy:    -617.6282275
C          1.02015        2.55814        0.78446
C          1.85575        2.04226        1.95254
C          3.30144        1.78226        1.54178
C          1.22353        0.81674        2.60351
Cl         1.88688        3.38506        3.23056
H         -0.00749        2.78504        1.10417
H          0.97684        1.79336       -0.00987
H          1.46016        3.47320        0.36212
H          3.33531        0.98343        0.78105
H          3.90567        1.46499        2.40439
H          3.75851        2.68697        1.11535
H          0.20084        1.03453        2.94456
H          1.81162        0.48149        3.47044
H          1.17787       -0.01005        1.87396
