16
TERT-BUTYL_HYDROPEROXIDE.gamout	Energy:    -308.3906448
O          0.15395       -0.11688        0.75032
O          1.37288       -0.14085       -0.02272
C         -0.97903       -0.01228       -0.13834
C         -1.06484       -1.24890       -1.03531
C         -2.14838        0.04207        0.84425
C         -0.88285        1.27535       -0.95816
H         -1.10754       -2.16537       -0.42499
H         -1.96801       -1.21426       -1.66458
H         -0.19013       -1.30802       -1.69895
H         -2.04483        0.90851        1.51377
H         -2.17920       -0.86906        1.46039
H         -3.10017        0.12936        0.29840
H         -0.00008        1.25072       -1.61212
H         -1.77862        1.40747       -1.58544
H         -0.79117        2.14452       -0.28936
H          1.67136       -1.04825        0.14858
