41
TETRAPROPYLAMMONIUM+1.gamout	Energy:    -527.9069558
N          0.00276        0.00089        0.00015
C          1.52331       -0.10874       -0.07785
C         -0.38609        1.47562       -0.05273
C         -0.51835       -0.59928        1.30301
C         -0.60753       -0.76429       -1.17003
C          2.13969       -1.49829        0.08047
C         -0.08555        2.24026       -1.34190
C          0.07130       -0.06821        2.60913
C         -2.12187       -0.67495       -1.35971
C          3.66636       -1.40776       -0.02606
C         -0.54344        3.69674       -1.20309
C         -0.59052       -0.76749        3.80186
C         -2.54466       -1.52163       -2.56551
H          1.80409        0.31090       -1.05251
H          1.91257        0.57029        0.69206
H          0.13170        1.95156        0.78940
H         -1.46167        1.50983        0.16569
H         -0.35048       -1.68142        1.22319
H         -1.60349       -0.43728        1.29320
H         -0.31445       -1.81178       -1.02675
H         -0.09060       -0.40222       -2.06878
H          1.76616       -2.18475       -0.69626
H          1.87213       -1.94079        1.05378
H          0.99276        2.22360       -1.56854
H         -0.59960        1.77996       -2.20073
H         -0.08546        1.01878        2.69919
H          1.15915       -0.23837        2.64731
H         -2.65367       -1.03643       -0.46474
H         -2.43734        0.36839       -1.51989
H          4.11634       -2.40514        0.07843
H          4.08979       -0.76635        0.76330
H          3.98132       -1.00021       -0.99998
H         -0.33141        4.25334       -2.12692
H         -1.62702        3.76278       -1.01512
H         -0.02347        4.20854       -0.37793
H         -0.17066       -0.39225        4.74594
H         -0.42630       -1.85675        3.77558
H         -1.67721       -0.58882        3.82514
H         -3.63316       -1.46841       -2.70920
H         -2.06897       -1.16919       -3.49478
H         -2.27636       -2.58098       -2.42791
