36
TETRAETHYLENEPENTAMINE.gamout	Energy:    -591.5948612
C        120.98442       10.06730        0.01084
N        119.77185        9.26857       -0.02084
C        120.00476        7.83484       -0.04654
C        120.67338       11.56223        0.02279
C        118.69537        7.04810       -0.09736
N        121.89178       12.35046        0.05609
N        118.94901        5.61889       -0.10546
C        121.69185       13.78911        0.04004
C        117.77390        4.77013       -0.02384
C        123.02493       14.53660        0.01157
C        118.16509        3.29408        0.04817
N        122.80802       15.98035       -0.00539
N        116.98124        2.44668        0.15103
H        121.63822        9.82497        0.88420
H        121.58626        9.84012       -0.88603
H        119.19278        9.50205        0.78711
H        120.60263        7.60112       -0.94821
H        120.60091        7.46339        0.81739
H        120.10820       11.81276       -0.89161
H        119.98525       11.78382        0.87516
H        118.10063        7.28466        0.80573
H        118.09345        7.40925       -0.96122
H        122.43942       12.09364        0.87852
H        119.49503        5.37010       -0.93082
H        121.11772       14.04734       -0.87004
H        121.09173       14.17081        0.89651
H        117.21858        5.03711        0.89578
H        117.05446        4.90387       -0.86267
H        123.59076       14.28633        0.92814
H        123.62140       14.14003       -0.83758
H        118.69962        3.02365       -0.88148
H        118.90155        3.17814        0.87186
H        123.69662       16.47565        0.06964
H        122.40784       16.26140       -0.90240
H        117.24128        1.46161        0.09962
H        116.54138        2.57172        1.06450
