17
TETRAHYDROFURFURYL_ALCOHOL.gamout	Energy:    -346.5159981
O          1.03814        0.28437       -0.93928
C          1.96476        0.02777        0.10596
C         -0.27244        0.46601       -0.40555
C          1.13451       -0.56097        1.24663
C         -0.16490        0.24416        1.11481
C         -1.21463       -0.51602       -1.10587
O         -2.56042       -0.34381       -0.71906
H          2.46154        0.96748        0.42581
H          2.74358       -0.65264       -0.27436
H         -0.61681        1.49694       -0.62892
H          0.95072       -1.63362        1.06998
H          1.61340       -0.45731        2.23153
H         -0.07116        1.20804        1.63945
H         -1.05612       -0.26462        1.50981
H         -1.06656       -0.42151       -2.19911
H         -0.93358       -1.54598       -0.83036
H         -2.86209        0.51387       -1.04709
