5
TETRABROMOMETHANE.gamout	Energy:  -10332.9365450
Br        20.00068       39.00784       -0.00023
C         20.00009       37.05174        0.00033
Br        21.84309       36.39850       -0.00036
Br        19.07832       36.39902        1.59641
Br        19.07814       36.39872       -1.59515
