5
TETRAFLUOROMETHANE.gamout	Energy:    -436.9933353
F          1.30493        0.01241        0.24710
C          1.09307        1.26654        0.61330
F          0.91983        1.32007        1.92433
F          0.01079        1.72654        0.00595
F          2.13668        2.00736        0.27575
