26
THEA+1.gamout	Energy:    -517.7461448
C         -4.10999        1.23297        0.38177
C         -2.64519        0.98451        0.69696
N         -1.71469        1.18118       -0.48011
H         -2.52717       -0.05796        1.01769
H         -2.27356        1.62825        1.50385
C         -0.40019        0.46087       -0.27748
C         -0.51636       -1.05660       -0.42018
H          0.28917        0.81790       -1.05216
H          0.00222        0.76749        0.69383
C         -1.52172        2.63357       -0.91999
C         -1.26852        3.61244        0.21179
H         -2.43589        2.92673       -1.44758
H         -0.67649        2.60881       -1.61985
O         -0.22986        3.11661        1.02602
H         -2.20439        3.77848        0.77458
H         -1.00946        4.57223       -0.27518
H          0.02773        3.78704        1.67302
O         -4.29464        2.57687        0.01124
H         -4.44505        0.53300       -0.41342
H         -4.67288        0.96562        1.29604
H         -5.23868        2.76342       -0.08770
O          0.80661       -1.50134       -0.48430
H         -1.09205       -1.29771       -1.34359
H         -1.06622       -1.50328        0.43214
H          0.83839       -2.46723       -0.46282
H         -2.16271        0.72423       -1.28438
