15
TOLUENE.gamout	Energy:    -271.1899228
C          5.00834        0.87080        2.13353
C          3.60595        1.42848        2.13673
C          2.87150        1.53071        0.94453
C          3.00424        1.87126        3.32289
C          1.58076        2.06131        0.93677
C          1.71217        2.40301        3.32110
C          0.99461        2.50108        2.12717
H          5.73456        1.61399        1.75890
H          5.32974        0.57911        3.14468
H          5.08877       -0.01437        1.48274
H          3.31964        1.18801        0.00735
H          3.55735        1.79769        4.26362
H          1.02801        2.13125       -0.00358
H          1.26456        2.74103        4.25889
H         -0.01633        2.91593        2.12347
