19
TOLUENEDIAMINE.gamout	Energy:    -381.7636617
C          7.27988        3.03098       -0.95690
C          6.36471        1.86720       -0.67795
C          6.85765        0.59928       -0.35558
C          4.95813        2.03395       -0.72341
C          6.02594       -0.48527       -0.07784
C          4.62989       -0.31864       -0.11929
N          3.77234       -1.39444        0.09906
C          4.11604        0.94617       -0.44613
N          4.41249        3.28804       -0.98828
H          8.33445        2.74565       -0.83115
H          7.17037        3.41412       -1.99029
H          7.07935        3.88289       -0.28199
H          7.94219        0.45725       -0.31580
H          6.45290       -1.46087        0.16757
H          2.83517       -1.15807        0.40639
H          4.16435       -2.16429        0.62996
H          3.03141        1.08769       -0.48992
H          4.97674        3.90937       -1.55628
H          3.43810        3.29265       -1.26879
