94
TORULARHODIN.gamout	Energy:   -1703.5772966
O         -1.25444       -0.30663       -0.46114
O         -0.13329       -2.05197        0.38629
C        -28.42934        8.79263       -8.20995
C        -29.84624        8.97373       -8.79875
C        -30.45073       10.34234       -8.53028
C        -27.55014       10.02806       -8.50409
C        -29.57580       11.40708       -9.17699
C        -28.09326       11.19705       -8.97268
C        -28.56641        8.56167       -6.68815
C        -27.86471        7.51886       -8.87532
C        -26.09856        9.99327       -8.29126
C        -27.26372       12.42139       -9.31757
C        -25.31548        9.10102       -7.61607
C        -23.87339        9.14390       -7.44595
C        -23.04708       10.25158       -8.05552
C        -23.26800        8.14005       -6.72118
C        -21.86530        8.00044       -6.44984
C        -21.31919        6.96089       -5.73676
C        -19.93051        6.72472       -5.41907
C        -18.86455        7.70308       -5.85427
C        -19.59266        5.58407       -4.71371
C        -18.28053        5.17153       -4.31780
C        -17.99908        4.00859       -3.63462
C        -16.68130        3.59575       -3.25669
C        -16.29136        2.44325       -2.59845
C        -14.88577        2.23067       -2.34697
C        -17.26850        1.39275       -2.13892
C        -14.30625        1.14695       -1.73256
C        -12.19266       -0.03331       -0.97413
C        -12.89119        1.01186       -1.54408
C        -10.75229        0.04887       -0.91966
C         -7.49919       -1.60270        0.02659
C        -12.86411       -1.26054       -0.41578
C         -9.88901       -0.89005       -0.41553
C         -8.46366       -0.72811       -0.42229
C         -6.10976       -1.22094       -0.10455
C         -7.82029       -2.93917        0.64146
C         -5.01574       -1.95469        0.26251
C         -3.66380       -1.49232        0.07662
C         -2.51238       -2.14969        0.39873
C         -2.42069       -3.50541        1.03788
C         -1.19633       -1.52882        0.12268
H        -30.48884        8.17554       -8.39519
H        -29.80230        8.81221       -9.89043
H        -31.47536       10.39905       -8.92825
H        -30.52949       10.52602       -7.44480
H        -29.77191       11.44823      -10.26876
H        -29.84270       12.41172       -8.80450
H        -29.18466        7.67032       -6.49470
H        -27.59782        8.41092       -6.19486
H        -29.04808        9.41928       -6.19562
H        -27.75282        7.65893       -9.96217
H        -26.89086        7.20845       -8.47911
H        -28.56617        6.68351       -8.71841
H        -25.57570       10.84099       -8.73393
H        -26.77372       12.85190       -8.42762
H        -26.47078       12.20660      -10.05335
H        -27.89700       13.20949       -9.74974
H        -25.78380        8.24766       -7.12271
H        -22.49621       10.81184       -7.28206
H        -22.29977        9.84846       -8.75850
H        -23.65503       10.97501       -8.61073
H        -23.91929        7.36137       -6.30750
H        -21.20141        8.77520       -6.84318
H        -22.01418        6.20167       -5.35749
H        -18.32344        8.11724       -4.98702
H        -18.11490        7.21996       -6.50270
H        -19.27908        8.55093       -6.41143
H        -20.41482        4.91622       -4.43123
H        -17.43784        5.82267       -4.57835
H        -18.84355        3.36033       -3.37475
H        -15.87458        4.28454       -3.53506
H        -14.21765        3.02710       -2.69688
H        -17.05208        0.41713       -2.60762
H        -17.20332        1.24184       -1.04767
H        -18.30718        1.65062       -2.37660
H        -14.95355        0.34173       -1.37454
H        -12.28785        1.85067       -1.91178
H        -10.31582        0.96469       -1.33642
H        -12.52280       -2.17205       -0.93647
H        -12.62034       -1.39506        0.65211
H        -13.95615       -1.21863       -0.50407
H        -10.30277       -1.80955        0.00716
H         -8.10204        0.21599       -0.84747
H         -5.93318       -0.23537       -0.55201
H         -7.36263       -3.76165        0.06501
H         -7.41945       -3.00948        1.66729
H         -8.89879       -3.12996        0.69263
H         -5.16352       -2.94051        0.71141
H         -3.55034       -0.50326       -0.37628
H         -1.85452       -4.20182        0.39715
H         -1.86203       -3.44766        1.98662
H         -3.40687       -3.94016        1.23928
H         -0.33143       -0.02905       -0.58183
