16
TRANS,TRANS-2,4-HEXADIENE.gamout	Energy:    -234.2958607
C          0.74067        3.01634        0.67415
C          1.97092        2.44852        1.31367
C          2.13876        2.23480        2.63284
C          3.34265        1.68123        3.23716
C          3.50992        1.46753        4.55636
C          4.73986        0.89966        5.19654
H          0.96773        3.94379        0.11754
H         -0.03621        3.24933        1.41956
H          0.30769        2.31331       -0.06056
H          2.79689        2.18919        0.63701
H          1.31971        2.48995        3.31907
H          4.16183        1.42612        2.55110
H          2.68364        1.72690        5.23260
H          5.51703        0.66661        4.45146
H          5.17255        1.60273        5.93138
H          4.51246       -0.02772        5.75310
