24
TRANS-4-OCTENE.gamout	Energy:    -314.0184348
C          4.44408        1.70879        1.00906
C          3.69415        2.08952        2.05132
C          2.37425        2.80628        1.96046
C          5.76052        0.97207        1.03145
C          1.20257        2.05114        2.61510
C          6.46608        0.81369        2.38307
C          0.82672        0.74453        1.91699
C          7.07862        2.10468        2.93242
H          4.06657        1.93257        0.00147
H          4.04161        1.87582        3.07093
H          2.46980        3.78742        2.46220
H          2.13667        3.02104        0.90301
H          5.58883       -0.03041        0.59373
H          6.44861        1.46727        0.31929
H          1.45315        1.84745        3.67270
H          0.32531        2.72103        2.63903
H          5.76543        0.38267        3.12022
H          7.26590        0.06276        2.26403
H          0.51511        0.92276        0.87336
H          1.67353        0.03959        1.89078
H         -0.00896        0.24517        2.43271
H          7.84022        2.50489        2.24154
H          6.32247        2.89181        3.07748
H          7.57127        1.92972        3.90214
