27
TRANS,CIS-1,2,4-TRIMETHYLCYCLOHEXANE.gamout	Energy:    -353.3065841
C          5.19952        1.31774        4.62183
C          4.36566        1.11048        3.35096
C          4.99875        1.75103        2.09437
C          2.92858        1.62357        3.55524
C          6.41102        1.23683        1.79161
C          4.08543        1.55874        0.87265
C          2.01859        1.42530        2.33585
C          2.66115        2.06724        1.10127
C          0.59951        1.94217        2.58383
H          5.35776        2.39160        4.82529
H          4.69033        0.88761        5.49990
H          6.18838        0.84075        4.55250
H          4.30450        0.01939        3.16198
H          5.06763        2.84090        2.28835
H          2.96520        2.70293        3.80337
H          2.48637        1.12278        4.43333
H          6.41532        0.14075        1.65619
H          6.79849        1.68566        0.86264
H          7.12648        1.47725        2.59209
H          4.53201        2.06511        0.00087
H          4.05278        0.48152        0.61955
H          1.95558        0.33544        2.14474
H          2.04355        1.87088        0.20851
H          2.67569        3.16630        1.23339
H         -0.04869        1.76647        1.70978
H          0.13444        1.44376        3.45013
H          0.59892        3.02811        2.78438
