22
TRANS-4-METHYLCYCLOHEXANOL.gamout	Energy:    -349.9217002
C          0.09060        0.76900        1.28476
C          0.99304        0.82237        0.05016
C          1.70593        2.17635       -0.08458
C          2.02594       -0.31484        0.04875
C          2.63716        2.23233       -1.29856
C          2.95412       -0.25291       -1.16766
C          3.65781        1.10144       -1.27889
O          4.43539        1.20606       -2.45909
H         -0.67211        1.56487        1.26512
H         -0.43802       -0.19569        1.35639
H          0.67708        0.89590        2.21172
H          0.35540        0.69230       -0.84626
H          0.96281        2.98782       -0.14759
H          2.29064        2.36391        0.83651
H          1.51270       -1.29009        0.08249
H          2.62824       -0.25021        0.97528
H          3.16804        3.19587       -1.34414
H          2.05702        2.14435       -2.23459
H          3.70512       -1.06100       -1.11456
H          2.37970       -0.41253       -2.09806
H          4.30434        1.23311       -0.38261
H          5.07516        0.48242       -2.46448
