27
TRANS-1-METHYL-2-ETHYLCYCLOHEXANE.gamout	Energy:    -353.3027744
C          0.90535        1.86975        4.38494
C          1.81669        1.27334        3.30682
C          3.29860        1.69479        3.38113
C          4.12227        1.20564        2.16060
C          3.94590        1.22415        4.69784
C          3.59811        1.72445        0.81514
C          5.60931        1.57584        2.31336
C          6.22310        1.08520        3.62484
H          1.16962        1.53032        5.39895
H          0.94640        2.97264        4.38040
H         -0.14310        1.58026        4.20889
H          1.40829        1.55196        2.32236
H          1.76255        0.16867        3.34937
H          3.33363        2.80412        3.36982
H          4.05638        0.09865        2.14679
H          3.39035        1.63665        5.55465
H          4.25655        1.39982       -0.00722
H          2.58596        1.36334        0.57924
H          3.57323        2.82853        0.79816
H          5.70821        2.67714        2.25604
H          6.17588        1.17349        1.45715
H          7.27792        1.39924        3.69467
H          3.84371        0.12372        4.76654
H          6.22599       -0.02095        3.63717
C          5.42411        1.60150        4.82046
H          5.51898        2.70216        4.87780
H          5.83735        1.20576        5.76274
