21
TRANS-2-HEPTENE.gamout	Energy:    -274.7643646
C          2.88863        3.32985        1.63272
C          4.19164        3.14807        2.43633
C          5.02827        1.97196        2.01176
C          1.87348        2.19235        1.78156
C          6.25201        2.04935        1.47364
C          0.57060        2.44185        1.02094
C          7.09280        0.88410        1.04099
H          3.14366        3.45566        0.56425
H          2.41213        4.27530        1.95030
H          3.93170        3.04210        3.50782
H          4.79414        4.06859        2.35320
H          4.58720        0.97601        2.15678
H          1.65187        2.04403        2.85520
H          2.32049        1.24606        1.42858
H          6.69748        3.04479        1.33198
H         -0.13677        1.60656        1.14733
H          0.75440        2.56058       -0.06067
H          0.06652        3.35966        1.36972
H          7.34635        0.94803       -0.03258
H          6.57997       -0.07579        1.21187
H          8.05376        0.85812        1.58580
