21
TRANS-1,2-DIMETHYLCYCLOPENTANE.gamout	Energy:    -274.7848394
C          4.56980        2.57961        1.67143
C          3.17585        2.88320        1.12749
C          2.03546        2.02000        1.70528
C          2.69343        4.31886        1.40350
C          2.05537        0.54898        1.29974
C          0.77035        2.77614        1.25908
C          1.15092        4.27885        1.26498
H          5.32434        3.25809        1.24063
H          4.88408        1.54959        1.43912
H          4.60199        2.70089        2.76854
H          3.18466        2.72273        0.03034
H          2.10708        2.08016        2.80994
H          3.16352        5.05611        0.73354
H          2.98013        4.59868        2.43279
H          1.19511        0.00622        1.72433
H          2.96845        0.03977        1.64728
H          2.00790        0.43858        0.20194
H         -0.09847        2.55326        1.89856
H          0.50178        2.45206        0.23788
H          0.81566        4.77284        0.33924
H          0.66693        4.81617        2.09553
