23
TRI-(ETHYL)-AMMONIUM+1.gamout	Energy:    -292.3769997
N         -2.82672        0.37025       -0.04937
C         -1.31162        0.42635       -0.17036
H         -3.16161        0.16395       -0.99906
C         -3.43372        1.71125        0.32778
C         -3.33645       -0.75348        0.83154
H         -2.79414        2.47665       -0.13349
H         -3.34175        1.80746        1.41856
C         -4.87360        1.86814       -0.13789
C         -2.94369       -2.14022        0.34897
H         -4.42863       -0.64456        0.85087
H         -2.96608       -0.54685        1.84509
H         -1.10806        1.22868       -0.89389
H         -1.00770       -0.52076       -0.63561
C         -0.57379        0.66221        1.13612
H         -4.96482        1.76458       -1.23190
H         -5.21302        2.88224        0.11990
H         -5.56741        1.16477        0.34602
H         -0.85551        1.60752        1.62381
H          0.50086        0.72641        0.90833
H         -0.70075       -0.16227        1.85303
H         -3.25911       -2.32361       -0.69156
H         -3.45825       -2.88260        0.97705
H         -1.86525       -2.33910        0.43446
