29
TRIACETIN.gamout	Energy:    -801.7533121
C         -1.31112        0.79580        1.53966
O         -1.34422        1.30266        2.88437
C         -2.23294        1.64430        0.66868
C          0.16158        0.85351        1.13188
C         -2.13030        0.68128        3.79468
O         -2.80279       -0.28933        3.55464
C         -2.02506        1.36365        5.13416
O         -3.57608        1.57215        1.14531
O          0.41383        0.09990       -0.05314
C         -4.34253        0.55552        0.67796
C         -5.66288        0.51084        1.39642
O         -3.97778       -0.20696       -0.18155
C          0.45613        0.76168       -1.23295
C          0.74729       -0.17542       -2.37533
O          0.26373        1.94782       -1.33743
H         -1.65724       -0.24821        1.54050
H         -2.18416        1.30841       -0.37543
H         -1.94188        2.70210        0.72634
H          0.75254        0.38232        1.92857
H          0.48954        1.89480        0.99861
H         -2.78519        0.95931        5.81319
H         -2.14708        2.45071        5.01950
H         -1.02375        1.18900        5.56067
H         -6.06516        1.52336        1.54205
H         -5.49430        0.06853        2.39232
H         -6.36785       -0.11535        0.83667
H          1.55396        0.24852       -2.99108
H         -0.15017       -0.24181       -3.01081
H          1.01841       -1.17814       -2.02376
