25
TRIALLYLAMINE.out Energy: -406.35938302
N 0.00000000 0.00000000 0.06396532
C -0.06369136 1.40560177 -0.32706318
C 1.24913252 -0.64764255 -0.32706318
C -1.18544116 -0.75795922 -0.32706318
C 0.89543494 2.27223527 0.44281588
C 1.52009600 -1.91158704 0.44281588
C -2.41553094 -0.36064823 0.44281588
C 1.73879815 3.15716836 -0.09625423
C 1.86478893 -3.08442755 -0.09625423
C -3.60358708 -0.07274081 -0.09625423
H -1.08936593 1.75442034 -0.11550708
H 0.09346976 1.54770741 -1.42163378
H 2.06405555 0.06620840 -0.11550708
H 1.29361905 -0.85480089 -1.42163378
H -0.97468961 -1.82062874 -0.11550708
H -1.38708881 -0.69290652 -1.42163378
H 0.85317551 2.15191932 1.53267769
H 1.43702905 -1.81483133 1.53267769
H -2.29020456 -0.33708800 1.53267769
H 2.38451358 3.78567984 0.52342975
H 1.80947265 3.29246598 -1.18106446
H 2.08623812 -3.95788925 0.52342975
H 1.94662286 -3.21328228 -1.18106446
H -4.47075170 0.17220941 0.52342975
H -3.75609551 -0.07918371 -1.18106446
