5
TRICHLOROSILANE.gamout	Energy:   -1670.1172777
Cl         1.15860       -1.55733        0.17331
Cl        -1.92779       -0.22600        0.17353
Cl         0.76900        1.78302        0.17326
Si         0.00023        0.00038       -0.51116
H          0.00057        0.00035       -1.98520
