22
TRIETHYLAMINE.gamout	Energy:    -291.9904286
N          0.25580        0.13502       -0.18060
C          1.69692       -0.08416       -0.22742
C         -0.17087        1.43934       -0.67644
C         -0.34942       -0.28684        1.07574
C          2.08405       -1.54488       -0.46632
C          0.16438        2.66541        0.19030
C         -1.86803       -0.44090        1.01727
H          2.20774        0.28828        0.69069
H          2.09898        0.51927       -1.05802
H         -1.25960        1.40806       -0.84921
H          0.28077        1.57083       -1.67452
H         -0.07746        0.38890        1.92104
H          0.08455       -1.26461        1.33658
H          3.17496       -1.63821       -0.59359
H          1.58826       -1.92710       -1.37262
H          1.79852       -2.19709        0.37486
H         -0.17887        3.58782       -0.30655
H          1.24943        2.76427        0.36021
H         -0.32657        2.62265        1.17624
H         -2.23990       -0.88562        1.95429
H         -2.15761       -1.09782        0.18112
H         -2.38646        0.52263        0.88757
