5
TRIFLUOROMETHANE.gamout	Energy:    -337.8477891
F         -1.25227       -0.02582        0.10194
C          0.00005       -0.00002       -0.36084
F          0.60376        1.09752        0.10195
F          0.64850       -1.07169        0.10195
H         -0.00032       -0.00002       -1.46479
