101
TRIHEXYL-(TETRADECYL)-PHOSPHONIUM+1.gamout	Energy:   -1599.5944314
P          1.03830        0.23522       -0.07694
C          0.44220       -0.05450        1.63617
C          0.41506        1.85732       -0.69907
C          0.38445       -1.09225       -1.17480
C          2.88275        0.17224       -0.10143
C          0.87649       -1.40151        2.24951
C          0.69126        3.09364        0.17793
C         -1.15143       -1.24279       -1.16760
C          3.57932        1.09539        0.91918
C          0.36878       -1.60257        3.68808
C          0.14902        4.41472       -0.39154
C         -1.66599       -2.40927       -2.02976
C          5.11767        1.06286        0.89132
C          0.82716       -2.93553        4.30447
C          0.60876        5.61154        0.45591
C         -3.19924       -2.51594       -2.02676
C          5.71071        2.16105        1.79287
C          0.35088       -3.16250        5.74832
C          0.14068        6.98254       -0.03946
C         -3.75577       -3.67931       -2.85697
C          7.24115        2.22848        1.82690
C          0.83221       -4.49218        6.35271
C          0.36868       -4.73474        7.79779
C          0.67347        8.12805        0.82349
C         -5.28570       -3.73858       -2.85598
C          7.75923        3.38820        2.68174
C          0.85361       -6.06611        8.39400
C          0.39110       -6.31457        9.83833
C          0.87380       -7.64658       10.43293
C          0.41037       -7.89597       11.87640
C          0.89031       -9.22558       12.47364
C          0.42217       -9.46644       13.91393
C          0.90635      -10.79301       14.50492
H         -0.65806        0.03208        1.60855
H          0.80634        0.79061        2.24420
H         -0.67047        1.72284       -0.84735
H          0.85169        1.98347       -1.70667
H          0.87158       -2.02957       -0.85262
H          0.75878       -0.88196       -2.19266
H          3.19470        0.41380       -1.13314
H          3.15709       -0.88515        0.06473
H          1.97851       -1.46846        2.24603
H          0.51584       -2.23231        1.61791
H          1.77595        3.21112        0.31840
H          0.26741        2.93405        1.18419
H         -1.61623       -0.30673       -1.52274
H         -1.50558       -1.38870       -0.13239
H          3.23599        0.84736        1.93845
H          3.26484        2.13380        0.73802
H         -0.73541       -1.54743        3.69614
H          0.72108       -0.76439        4.31714
H         -0.95514        4.38250       -0.44047
H          0.50117        4.54063       -1.43249
H         -1.22739       -3.35504       -1.66102
H         -1.30506       -2.28813       -3.06749
H          5.47235        1.20664       -0.14661
H          5.48330        0.06820        1.20755
H          1.93224       -2.98362        4.27661
H          0.47375       -3.77023        3.66998
H          1.71486        5.60909        0.50070
H          0.26967        5.46822        1.49929
H         -3.62811       -1.56760       -2.40244
H         -3.55694       -2.61471       -0.98428
H          5.33275        2.03001        2.82476
H          5.31976        3.14078        1.45623
H         -0.75429       -3.12342        5.77801
H          0.69946       -2.32446        6.38095
H         -0.96414        7.01099       -0.05709
H          0.46572        7.12403       -1.08632
H         -3.34781       -4.63108       -2.46947
H         -3.38971       -3.59373       -3.89642
H          7.62550        2.32833        0.79556
H          7.64391        1.27353        2.21116
H          1.93763       -4.52681        6.31426
H          0.48465       -5.32715        5.71491
H         -0.73660       -4.69936        7.83596
H          0.71774       -3.90036        8.43542
H          0.34659        8.02829        1.87231
H          0.32195        9.10335        0.45623
H          1.77668        8.15015        0.82350
H         -5.68537       -3.85651       -1.83444
H         -5.65072       -4.58600       -3.45539
H         -5.72553       -2.81879       -3.27786
H          7.40190        4.35935        2.29901
H          8.85868        3.41801        2.69158
H          7.42006        3.30212        3.72800
H          1.95912       -6.09978        8.35482
H          0.50641       -6.89897        7.75320
H         -0.71429       -6.27873        9.87680
H          0.73890       -5.48201       10.47902
H          1.97926       -7.68185       10.39429
H          0.52646       -8.47857        9.79119
H         -0.69498       -7.86035       11.91457
H          0.75762       -7.06410       12.51826
H          1.99590       -9.26378       12.43989
H          0.54281      -10.06049       11.83546
H         -0.68274       -9.43091       13.94664
H          0.76796       -8.63193       14.55208
H          0.54671      -11.65334       13.91488
H          0.54727      -10.92465       15.53745
H          2.00826      -10.84741       14.52582
