5
TRIIODOMETHANE.gamout	Energy:    -931.7231219
I          1.77329        1.50044        0.06556
C         -0.12904        0.46991       -0.05874
I         -1.83936        1.80013        0.06355
I         -0.24846       -0.89148       -1.74085
H         -0.19159       -0.15814        0.83168
