14
TRIMETHYLAMINE_OXIDE.out Energy: -249.42700765
O 0.00000000 0.00000000 1.42813473
N 0.00000000 0.00000000 0.08059281
C 0.19156420 -1.40024902 -0.42321321
C -1.30843332 0.53422504 -0.42321321
C 1.11686912 0.86602397 -0.42321321
H -0.62675510 -1.99689880 -0.00453036
H 0.19852898 -1.45130164 -1.52425860
H 1.14009350 -1.75493227 -0.00445162
H -1.41598754 1.54123524 -0.00453036
H -1.35612858 0.55371968 -1.52425860
H -2.08986268 -0.10988379 -0.00445162
H 2.04274264 0.45566356 -0.00453036
H 1.15759960 0.89758196 -1.52425860
H 0.94976918 1.86481607 -0.00445162
