12
TRIOXANE.gamout	Energy:    -343.1316022
C          3.03335        2.29832        2.74536
O          1.77529        2.38130        3.36334
O          2.91389        2.10898        1.35935
C          1.01730        1.23394        3.07912
C          2.14801        0.96333        1.09027
O          0.88332        1.03523        1.69557
H          3.61441        1.45604        3.19042
H          3.55897        3.24756        2.91388
H          0.01364        1.37669        3.50095
H          1.50239        0.34115        3.54024
H          2.68836        0.05822        1.45638
H          2.00175        0.90008        0.00389
