30
TRIPHENYLENE.gamout	Energy:    -692.2470398
C          4.24071        1.76200        4.22678
C          3.27008        2.13198        3.18834
C          3.67486        2.94256        2.09059
C          1.92395        1.70102        3.24687
C          5.58592        2.21638        4.13548
C          3.87486        0.95633        5.33131
C          5.06418        3.41021        1.99583
C          2.71167        3.27792        1.11067
C          1.00080        2.04399        2.27361
C          6.00377        3.05338        3.00273
C          6.49276        1.84132        5.15429
C          4.78350        0.60361        6.31470
C          5.50356        4.21592        0.91988
C          1.39953        2.84249        1.19166
C          7.33276        3.52229        2.87990
C          6.10926        1.05188        6.22531
C          6.81090        4.66173        0.82340
C          7.73735        4.31086        1.81581
H          1.59085        1.08048        4.07703
H          2.85150        0.59569        5.42390
H          2.99509        3.89711        0.26083
H         -0.02999        1.69226        2.35312
H          7.52783        2.17639        5.10803
H          4.46520       -0.01967        7.15251
H          4.80478        4.50351        0.13548
H          0.68444        3.12273        0.41540
H          8.07113        3.26274        3.63716
H          6.83858        0.78294        6.99218
H          7.11169        5.28236       -0.02271
H          8.77221        4.65389        1.75507
