16
VALERALDEHYDE.gamout	Energy:    -271.3986981
C          1.84632        1.09700        4.49997
C          1.94512        1.74100        3.11940
C          1.04693        1.08064        2.06923
C          2.71978        1.72914        5.55857
C          1.14671        1.73369        0.68938
O          3.44817        2.67273        5.38072
H          0.80857        1.11665        4.88918
H          2.10758        0.02011        4.47115
H          1.69496        2.81289        3.20512
H          2.99715        1.71082        2.78605
H          1.30562        0.00846        1.98722
H         -0.00335        1.10978        2.41458
H          2.64618        1.24589        6.57104
H          0.84708        2.79493        0.72251
H          2.17825        1.69483        0.30010
H          0.49655        1.22744       -0.04156
