20
VERATROLE.out Energy: -460.95434552
O -1.29854820 0.00000000 -1.37089424
O 1.29854820 0.00000000 -1.37089424
C -0.71192423 0.00000000 -0.14824886
C 0.71192423 0.00000000 -0.14824886
C -1.39684966 0.00000000 1.06869999
C 1.39684966 0.00000000 1.06869999
C -0.69458036 0.00000000 2.28517377
C 0.69458036 0.00000000 2.28517377
C -2.70294171 0.00000000 -1.45346143
C 2.70294171 0.00000000 -1.45346143
H -2.48700681 0.00000000 1.08073688
H 2.48700681 0.00000000 1.08073688
H -1.25005441 0.00000000 3.22587702
H 1.25005441 0.00000000 3.22587702
H -3.14543278 0.89759358 -0.98299018
H -3.14543278 -0.89759358 -0.98299018
H -2.95405879 0.00000000 -2.52291356
H 3.14543278 -0.89759358 -0.98299018
H 3.14543278 0.89759358 -0.98299018
H 2.95405879 0.00000000 -2.52291356
