22
VINYLCYCLOHEXANE.gamout	Energy:    -312.8220971
C         -0.62813       -0.00006       -0.17630
C          0.14744       -1.26324        0.25098
C          0.14755        1.26309        0.25089
C          1.59043       -1.26241       -0.26620
C          1.59041        1.26221       -0.26651
C          2.34262       -0.00001        0.16429
C         -2.02703        0.00007        0.37860
C         -3.15426        0.00026       -0.33824
H         -0.69643       -0.00007       -1.28100
H         -0.38667       -2.16090       -0.10019
H          0.15448       -1.31908        1.35628
H          0.15469        1.31901        1.35617
H         -0.38656        2.16060       -0.10037
H          1.58134       -1.32096       -1.37073
H          2.11675       -2.16446        0.08639
H          2.11674        2.16440        0.08572
H          1.58114        1.32040       -1.37107
H          2.45562        0.00014        1.26489
H          3.36355       -0.00007       -0.25184
H         -2.09749        0.00004        1.47624
H         -4.13682        0.00036        0.14149
H         -3.14150        0.00030       -1.43415
