3
WATER.gamout	Energy:     -76.3211709
O         -0.23090       -0.32621        0.00000
H          0.73448       -0.27267        0.00000
H         -0.50197        0.60198        0.00000
