20
XYLOSE.gamout	Energy:    -571.9066978
O         -2.81980        1.66134        1.45138
C         -1.86239        1.61846        0.71322
C         -1.37984        0.30594        0.13845
O         -2.24737       -0.73241        0.51998
C          0.06366       -0.04149        0.59727
O          0.28744       -1.41301        0.34398
C          1.13629        0.73514       -0.17837
O          1.06277        0.40873       -1.54819
C          2.53057        0.50170        0.40280
O          3.41848        1.41008       -0.20414
H         -1.29647        2.53954        0.43722
H         -1.35166        0.39868       -0.96521
H         -2.87867       -0.33449        1.14937
H          0.15395        0.17335        1.68291
H         -0.55763       -1.85729        0.53066
H          0.93697        1.81874       -0.09998
H          1.02413       -0.56118       -1.58010
H          2.81207       -0.55489        0.22497
H          2.48488        0.64399        1.50411
H          4.32156        1.14376        0.00422
