66
	Energy:      97.4924864
O        -14.00960       -0.58097        0.05969
C        -12.87671        0.24131        0.08766
C        -11.62216       -0.62118        0.03231
O        -10.48814        0.21842        0.06123
C         -9.31808       -0.56942        0.01106
C         -8.10214        0.34806        0.04495
O         -6.93129       -0.43867       -0.00489
C         -5.79857        0.40282        0.02868
C         -4.54089       -0.45557       -0.02486
O         -3.40945        0.38747        0.00919
C         -2.23672       -0.39629       -0.04003
C         -1.02412        0.52546       -0.00134
O          0.14956       -0.25697       -0.05075
C          1.27941        0.58829       -0.01438
C          2.53957       -0.26615       -0.07152
O          3.66916        0.57941       -0.03515
C          4.84315       -0.20199       -0.09236
C          6.05505        0.72066       -0.05295
O          7.22850       -0.06141       -0.11133
C          8.35897        0.78287       -0.07503
C          9.61762       -0.07263       -0.14827
O         10.74903        0.77049       -0.11225
C         11.92080       -0.01251       -0.19083
C         13.13518        0.90673       -0.14968
O         14.30627        0.12294       -0.23010
H        -14.79205        0.02825        0.09837
H        -12.88443        0.92367       -0.79184
H        -12.86498        0.83496        1.02927
H        -11.63275       -1.30026        0.91590
H        -11.65199       -1.21118       -0.91268
H         -9.26122       -1.24787        0.89341
H         -9.27887       -1.15743       -0.93486
H         -8.15901        1.02653       -0.83739
H         -8.14221        0.93612        0.99084
H         -5.78723        1.08403       -0.85331
H         -5.77246        0.99127        0.97480
H         -4.55182       -1.13680        0.85710
H         -4.56613       -1.04386       -0.97108
H         -2.17963       -1.07656        0.84090
H         -2.19335       -0.98199       -0.98719
H         -1.08172        1.20582       -0.88218
H         -1.06803        1.11112        0.94585
H          1.28852        1.27267       -0.89395
H          1.30363        1.17338        0.93384
H          2.53112       -0.95057        0.80798
H          2.51493       -0.85117       -1.01981
H          4.90406       -0.88698        0.78465
H          4.88440       -0.78253       -1.04281
H          5.99382        1.40581       -0.92981
H          6.01470        1.30102        0.89764
H          8.36310        1.47493       -0.94863
H          8.38960        1.35954        0.87812
H          9.61442       -0.76482        0.72515
H          9.58509       -0.64924       -1.10150
H         11.98813       -0.70982        0.67597
H         11.95216       -0.57984       -1.14960
H         13.06749        1.60433       -1.01618
H         13.10488        1.47367        0.80935
C         15.43883        0.96411       -0.19094
H         15.47907        1.52604        0.77058
C         16.69437        0.10673       -0.28767
H         15.43716        1.66900       -1.05419
H         16.67187       -0.45874       -1.24629
O         17.82580        0.93063       -0.24966
H         16.71476       -0.60139        0.57099
H         18.60895        0.32485       -0.31735
