59
	Energy:      86.3443621
O        -13.94190       -0.44902        0.06847
C        -12.80105        0.36205        0.10112
C        -11.55520       -0.51219        0.03608
O        -10.41246        0.31551        0.06977
C         -9.25123       -0.48438        0.00689
C         -8.02419        0.41810        0.04621
O         -6.86448       -0.38365       -0.01740
C         -5.71916        0.44015        0.02304
C         -4.47677       -0.43868       -0.05025
O         -3.32872        0.38160       -0.00887
C         -2.17339       -0.42610       -0.08161
C         -0.93857        0.46454       -0.02293
O          0.21328       -0.34765       -0.09600
C          1.36713        0.46210       -0.02770
C          2.59985       -0.42994       -0.10609
O          3.75717        0.37506       -0.03511
C          4.90343       -0.44577       -0.10535
C          6.14779        0.42791       -0.00788
O          7.29132       -0.39643       -0.07742
C          8.45258        0.39862        0.02822
C          9.67768       -0.50430       -0.04588
O         10.84040        0.28864        0.06164
C         11.98135       -0.53968       -0.00330
C         13.22863        0.32612        0.12059
H        -14.71840        0.16737        0.11271
H        -12.80372        1.05170       -0.77269
H        -12.78182        0.94761        1.04764
H        -11.57080       -1.19859        0.91393
H        -11.59310       -1.09398       -0.91374
H         -9.19895       -1.17317        0.88152
H         -9.22195       -1.06249       -0.94548
H         -8.07551        1.10697       -0.82832
H         -8.05281        0.99588        0.99880
H         -5.70128        1.13439       -0.84859
H         -5.67933        1.01337        0.97793
H         -4.49617       -1.13334        0.82106
H         -4.51792       -1.01182       -1.00524
H         -2.12894       -1.13005        0.78138
H         -2.14615       -0.98831       -1.04348
H         -0.97937        1.16853       -0.88581
H         -0.96581        1.02625        0.93928
H          1.40128        1.17356       -0.88480
H          1.40409        1.01532        0.93903
H          2.56203       -1.14206        0.75044
H          2.56291       -0.98284       -1.07307
H          4.92521       -1.16745        0.74379
H          4.93941       -0.98879       -1.07787
H          6.13027        1.14946       -0.85694
H          6.11038        0.97065        0.96485
H          8.50989        1.12681       -0.81347
H          8.47779        0.93195        1.00647
H          9.61816       -1.23287        0.79543
H          9.65310       -1.03743       -1.02427
H         11.98648       -1.27113        0.83756
H         12.02728       -1.07107       -0.98181
O         14.36771       -0.48562        0.05744
H         13.20068        0.86119        1.09635
H         13.24245        1.06072       -0.71566
H         15.14520        0.12497        0.14433
