8
1,1,2-TRICHLOROETHANE.gamout	Energy:   -1457.9038047
Cl        -1.05590       -1.48371       -0.20520
C         -0.59765       -0.00000        0.69349
C          0.87436       -0.00000        1.07207
Cl         1.99014        0.00000       -0.32789
Cl        -1.05589        1.48371       -0.20520
H         -1.19870       -0.00000        1.61239
H          1.08695        0.89723        1.67082
H          1.08696       -0.89722        1.67083
