11
1,1,1,2,3,3-HEXAFLUOROPROPANE.gamout	Energy:    -713.7426821
C         -1.53961        1.27471        0.01055
C         -0.19523        2.00482       -0.06514
F         -1.59980        0.58249        1.16516
H         -0.17242        2.73406        0.76374
F          2.13254        1.82653        0.13192
F         -1.71066        0.42301       -0.99861
F         -0.12390        2.66642       -1.25757
F         -2.54780        2.15074       -0.00239
C          1.00710        1.07504        0.09247
F          1.09314        0.23044       -0.95823
H          0.93417        0.48575        1.02380
