8
1,1,1-TRICHLOROTRIFLUOROETHANE.gamout	Energy:   -1755.2924804
Cl        -1.31717        1.04384       -1.33047
Cl        -1.31895        0.62917        1.56921
Cl        -1.31793       -1.67417       -0.23921
F          1.27891        1.23679        0.17615
F          1.27984       -0.76976        0.98268
F          1.27621       -0.46594       -1.15870
C         -0.74810        0.00014        0.00039
C          0.81622        0.00058        0.00031
