24
1,1,3-TRIMETHYLCYCLOPENTANE.gamout	Energy:    -314.0398245
C          0.76745        2.84993        1.20908
C          1.71109        1.93150        2.00924
C          0.88439        1.08622        2.98867
C          2.78779        2.77818        2.74435
C          2.55644        1.03638        1.03029
C          3.95833        2.91594        1.75742
C          4.02481        1.50358        1.14616
C          5.26664        3.41027        2.37065
H          0.16874        3.49139        1.87781
H          0.06685        2.25778        0.59652
H          1.32794        3.50848        0.52552
H          0.13705        0.47465        2.45502
H          0.33980        1.72438        3.70569
H          1.52505        0.40210        3.57015
H          2.39586        3.74825        3.09449
H          3.14382        2.23405        3.63921
H          2.45687       -0.03205        1.28025
H          2.18454        1.14624       -0.00174
H          3.65999        3.62353        0.96083
H          4.57940        0.84530        1.83915
H          4.56561        1.47902        0.18580
H          5.60851        2.73027        3.17047
H          6.06963        3.46761        1.61680
H          5.15381        4.41437        2.81260
