9
1,1,2-TRIFLUOROETHANOL.gamout	Energy:    -452.2359230
F         -0.48121       -1.08303        0.76714
C         -0.42524       -0.00000       -0.05761
C          0.87197       -0.00000       -0.85144
F          1.94191       -0.00000        0.00021
O         -1.46655        0.00000       -0.92615
F         -0.48121        1.08303        0.76714
H          0.89460       -0.90085       -1.48630
H          0.89460        0.90085       -1.48630
H         -2.29447       -0.00000       -0.42010
