8
1,1-DIFLUORO-1-CHLOROETHANE.gamout	Energy:    -737.3766608
C          0.95784        0.90327       -0.02844
Cl        -0.21206        2.24436        0.27496
F          2.18358        1.44341       -0.16557
F          0.98922        0.12238        1.06823
C          0.58339        0.10031       -1.24978
H          0.57748        0.74714       -2.13689
H          1.32994       -0.69772       -1.38297
H         -0.40984       -0.34733       -1.11375
