15
1,1-DIMETHYLCYCLOPROPANE.gamout	Energy:    -196.2422429
C          3.18436        2.27005        0.75759
C          2.06088        2.02018        1.74937
C          1.56768        3.26556        2.46665
C          1.05040        0.94464        1.42006
C          2.06854        0.71675        2.51543
H          3.50135        1.33712        0.26453
H          4.06805        2.70122        1.25984
H          2.86985        2.97604       -0.03085
H          0.75482        3.03077        3.17279
H          1.18319        4.01120        1.74901
H          2.38228        3.74175        3.03998
H          1.16905        0.39014        0.48321
H          0.00724        1.10527        1.71192
H          2.88055        0.00706        2.32461
H          1.71883        0.72224        3.55319
