21
1,1-DIMETHYLCYCLOPENTANE.gamout	Energy:    -274.7818831
C          1.72955        0.55453       -0.98342
C          0.67794        0.00750       -0.00596
C         -0.28240        1.14067        0.51181
C         -1.71068        0.75239        0.07226
C         -1.65596       -0.77489       -0.07180
C         -0.28218       -0.99839       -0.71438
C          1.38733       -0.67683        1.17743
H          2.41459        1.26149       -0.48495
H          2.34224       -0.25945       -1.40788
H          1.25283        1.08543       -1.82435
H         -0.22665        1.20703        1.61110
H          0.01146        2.13020        0.12624
H         -2.48670        1.09848        0.77417
H         -1.94470        1.20326       -0.90849
H         -1.69914       -1.25023        0.92483
H         -2.48846       -1.18998       -0.66301
H         -0.34631       -0.74885       -1.78848
H          0.07698       -2.03844       -0.64576
H          1.99536        0.04602        1.74765
H          0.66366       -1.12477        1.87864
H          2.05898       -1.47907        0.82818
