8
1,1-DIFLUOROETHANE.gamout	Energy:    -277.9698225
C          2.30538        1.61672        0.81767
C          0.97769        0.91525        0.94743
F          1.03664       -0.02281        1.93497
F          0.00455        1.80752        1.28622
H          2.55676        2.09784        1.77495
H          2.25578        2.38317        0.03016
H          3.09280        0.89296        0.55989
H          0.65650        0.40598        0.01967
