28
1,1-DIPHENYLETHANE.gamout	Energy:    -541.1816139
C          4.30670        4.75037        1.15297
C          4.42570        3.21632        1.12267
C          3.16597        2.57330        1.70580
C          5.70146        2.67105        1.76684
C          2.96209        2.49763        3.09374
C          2.15914        2.08385        0.85949
C          6.06539        1.33308        1.52707
C          6.53356        3.43995        2.59375
C          1.78615        1.95528        3.61753
C          0.98075        1.53800        1.37953
C          7.21705        0.78321        2.09064
C          7.68947        2.89111        3.16461
C          0.78946        1.47291        2.76208
C          8.03665        1.56265        2.91576
H          4.19375        5.13102        2.18055
H          5.19069        5.23063        0.70325
H          3.41796        5.07086        0.58820
H          4.46437        2.91973        0.05998
H          3.74019        2.85688        3.77292
H          2.29966        2.13063       -0.22510
H          5.42847        0.71285        0.88913
H          6.29065        4.48428        2.79914
H          1.64884        1.90389        4.70126
H          0.21154        1.15954        0.70053
H          7.47831       -0.25855        1.88488
H          8.32141        3.51224        3.80554
H         -0.12898        1.04471        3.17237
H          8.94019        1.13516        3.35854
