8
1,1-DICHLORO-2,2,2-TRIFLUOROETHANE.gamout	Energy:   -1295.9032507
C         41.01039       20.01425        0.02405
C         39.47006       20.01010        0.01625
F         38.95668       20.62508        1.07872
F         39.02314       20.62090       -1.08779
F         39.02418       18.74824       -0.00345
Cl        41.62608       21.68550       -0.03877
Cl        41.62530       19.12173        1.43954
H         41.35671       19.49365       -0.87691
