15
1,2,4-BENZENETRIOL.gamout	Energy:    -457.3329256
O         -1.71769        1.72082       -0.00000
O         -2.48885       -0.83595        0.00000
O          2.90548        0.41433        0.00000
C         -0.76433        0.75845       -0.00000
C         -1.13354       -0.60137       -0.00000
C          1.57658        0.11351       -0.00000
C          0.58717        1.10910        0.00000
C         -0.14646       -1.58413       -0.00000
C          1.20999       -1.23742       -0.00000
H          0.84907        2.17095        0.00000
H         -0.43698       -2.63989        0.00000
H          1.98816       -2.00226       -0.00000
H         -2.57928        1.27504       -0.00000
H         -2.66429       -1.78510       -0.00010
H          3.01677        1.37381       -0.00010
