17
1,2,3-TRICHLORO-2-METHYLBUTANE.gamout	Energy:   -1575.6861603
C          0.92691        0.02492       -0.11142
C          0.47903       -0.87347        1.05116
C          0.91300       -2.34747        0.87813
C          0.42862       -3.31295        1.95021
C          0.93574       -0.31426        2.40216
Cl         0.41820       -2.99755       -0.75365
Cl        -1.35977       -0.76589        1.00112
Cl         2.73303        0.11946       -0.24950
H          0.55286       -0.36094       -1.06541
H          0.56727        1.04859        0.04880
H          2.01220       -2.33640        0.83979
H         -0.66992       -3.33122        1.99064
H          0.81654       -3.02647        2.93990
H          0.79007       -4.32664        1.72688
H          0.68226        0.75364        2.46968
H          2.02725       -0.41595        2.50407
H          0.44628       -0.83265        3.23681
