8
1,2-DIBROMOCHLOROTRIFLUOROETHANE.gamout	Energy:   -5982.7325977
Br        19.74253       39.80933       -0.84986
C         19.99973       38.09925        0.05928
C         21.45677       37.52821       -0.06099
F         19.70692       38.23907        1.35398
F         19.16247       37.19633       -0.46039
Br        22.75926       38.72208        0.77706
Cl        21.86956       37.21368       -1.75728
F         21.45381       36.36610        0.61421
