8
1,2-DIBROMOTETRAFLUOROETHANE.gamout	Energy:   -5622.4699254
C         39.02044       20.02370       -0.04215
C         37.45870       19.94961        0.00105
Br        39.71218       21.66790        0.75017
F         39.53359       18.96463        0.58222
F         39.38389       19.97319       -1.32898
F         36.94996       21.02324       -0.60224
F         37.09277       18.86319       -0.68840
Br        36.76291       19.81622        1.81978
