11
1,2-DIBROMOPROPANE.gamout	Energy:   -5265.2252468
Br        -1.96949        0.12145        0.04177
C         -0.56678       -1.15422       -0.46016
C          0.71148       -1.03242        0.35208
C          1.66343       -2.19213        0.07883
Br         1.63731        0.68273       -0.03275
H         -1.00559       -2.14931       -0.29729
H         -0.38039       -1.01354       -1.53294
H          0.47317       -0.96663        1.42225
H          1.95128       -2.23105       -0.98327
H          2.57909       -2.09017        0.67827
H          1.17909       -3.14721        0.34553
