16
1,2-BUTANEDIOL.gamout	Energy:    -308.4725803
O         -0.11005        1.63166        0.48292
O          2.38635        0.60717        0.51323
C          0.09090        0.30235        0.04472
C         -1.18408       -0.49691        0.29688
C          1.30784       -0.28439        0.75468
C         -2.40039        0.06500       -0.43990
H          0.31040        0.28780       -1.04672
H         -1.37809       -0.50512        1.38458
H         -1.00647       -1.54468       -0.00532
H          1.08794       -0.36550        1.83781
H          1.52416       -1.30091        0.36927
H         -2.57519        1.11182       -0.14996
H         -2.25164        0.04142       -1.53283
H         -3.30916       -0.51482       -0.21223
H          0.76903        2.04089        0.48175
H          3.11968        0.38575        1.09940
