10
1,2-BUTADIENE.gamout	Energy:    -155.7539348
C          2.73539        2.11800        2.30545
C          1.58367        2.09446        1.67658
C          0.94738        0.87380        1.05856
C          3.88605        2.13744        2.93305
H          1.02913        3.04007        1.58892
H          1.57244       -0.02083        1.19507
H         -0.04161        0.67677        1.50791
H          0.78473        1.02054       -0.02344
H          3.95240        1.96555        4.01418
H          4.82601        2.32831        2.40117
