8
1,2-DICHLOROETHANE.gamout	Energy:    -998.5099343
C          2.38724        0.75578        0.82830
C          1.50448        1.85334        1.39176
Cl        -0.03999        1.13668        2.00004
Cl         3.92967        1.47308        0.21560
H          1.89876        0.24398       -0.01146
H          2.64546        0.01683        1.59865
H          1.24891        2.59386        0.62203
H          1.99154        2.36319        2.23353
