24
1,2-DIMETHYLNAPHTHALENE.gamout	Energy:    -463.8838902
C          4.65451        3.90332        0.94007
C          4.65539        5.41482        0.98701
C          3.39554        3.20813        0.91213
C          5.84483        3.17637        0.92412
C          3.37116        1.77234        0.86883
C          2.14353        3.89194        0.92583
C          7.20393        3.84425        0.95176
C          5.79581        1.75293        0.88058
C          4.60434        1.06767        0.85392
C          2.12147        1.09189        0.84214
C          0.94683        3.20386        0.89900
C          0.93148        1.78798        0.85674
H          5.67006        5.83038        1.00784
H          4.14295        5.84599        0.10997
H          4.12890        5.79187        1.88046
H          2.12585        4.98239        0.95801
H          7.34839        4.45517        1.85885
H          8.00645        3.09215        0.93288
H          7.35771        4.51017        0.08597
H          6.73853        1.19814        0.86852
H          4.59280       -0.02560        0.82106
H          2.12323       -0.00175        0.80963
H          0.00268        3.75543        0.91040
H         -0.02198        1.25343        0.83601
