13
1,2-EPOXYBUTANE.gamout	Energy:    -232.1038011
C          1.81341        2.05742        1.01082
C          1.03131        0.92951        1.68777
C          3.29042        1.75996        0.89243
C          4.27434        2.22689        1.88277
O          4.15344        2.85702        0.61328
H          1.41331        2.23705       -0.00337
H          1.69048        3.00517        1.56237
H          1.40341        0.73687        2.70778
H         -0.03938        1.17650        1.76368
H          1.11192       -0.01429        1.12227
H          3.53723        0.84486        0.32957
H          5.20078        1.65998        2.05071
H          3.93298        2.82130        2.74240
