8
1,2-DIBROMOETHANE.gamout	Energy:   -5225.9696569
Br         0.00933       -0.03473       -0.00010
C          1.69127        0.99626        0.00012
C          1.37882        2.47535       -0.00012
Br         3.06077        3.50633        0.00010
H          2.24385        0.69134        0.89721
H          2.24419        0.69113       -0.89670
H          0.82625        2.78028       -0.89721
H          0.82591        2.78049        0.89670
