15
1,3,5-CYCLOHEPTATRIENE.gamout	Energy:    -271.1338289
C          3.09445        3.00873        2.95330
C          3.95401        1.76980        3.01620
C          1.64554        2.59116        3.01437
C          3.95466        0.84598        2.02616
C          1.06242        1.87287        2.02529
C          3.04184        0.81543        0.90109
C          1.75215        1.27291        0.90104
H          3.33880        3.69978        3.77288
H          3.28504        3.53966        2.00034
H          4.61234        1.62967        3.88064
H          1.04520        2.90006        3.87714
H          4.68599        0.03032        2.07722
H         -0.01954        1.70210        2.07627
H          3.37552        0.26067        0.01661
H          1.14322        1.05203        0.01683
