16
1,3,5,7-CYCLOOCTATETRAENE.gamout	Energy:    -309.1445856
C         -1.72313       -0.66432       -0.00032
C         -1.71509        0.68489       -0.00032
C         -0.68489       -1.71509        0.00032
C         -0.66432        1.72313        0.00032
C          0.66432       -1.72313        0.00032
C          0.68489        1.71509        0.00032
C          1.71509       -0.68490       -0.00032
C          1.72313        0.66432       -0.00032
H         -2.72938       -1.09825       -0.00083
H         -2.71609        1.13075       -0.00083
H         -1.13075       -2.71608        0.00083
H         -1.09825        2.72937        0.00083
H          1.09823       -2.72938        0.00083
H          1.13075        2.71609        0.00083
H          2.71608       -1.13075       -0.00083
H          2.72938        1.09823       -0.00083
