14
1,3-DIMETHYLUREA.gamout	Energy:    -303.4839845
O         -0.02614        1.21513        0.29315
N          1.16199       -0.70718       -0.09705
N         -1.16136       -0.71568       -0.09951
C         -0.00500        0.01693        0.05015
C          2.46323       -0.09217        0.02647
C         -2.45634       -0.08185        0.02833
H          1.11000       -1.69762       -0.29795
H         -1.11887       -1.70555       -0.30184
H          3.05285       -0.17704       -0.90437
H          3.05473       -0.53280        0.84943
H          2.30242        0.97270        0.24261
H         -2.59569        0.36609        1.02701
H         -3.24072       -0.83662       -0.12834
H         -2.59129        0.72363       -0.71352
