14
1,3-DIOXANE.gamout	Energy:    -307.2619409
C         -3.10907        1.65203       -0.14118
C         -1.65105        1.98653       -0.46965
C         -2.64435       -0.61663       -0.42182
O         -3.49165        0.44074       -0.77238
H         -3.79958        2.43191       -0.49590
H         -3.23686        1.56086        0.95968
O         -1.31003       -0.39316       -0.78136
H         -2.98591       -1.50561       -0.97087
H         -2.71170       -0.80301        0.67737
C         -0.78164        0.76580       -0.15572
H         -1.31237        2.86566        0.10449
H         -1.56807        2.22402       -1.54319
H         -0.73125        0.61134        0.94431
H          0.24763        0.88876       -0.52484
