11
1,3-DICHLOROPROPANE.gamout	Energy:   -1037.7655606
Cl        -2.75135        0.28504        0.00000
C         -1.25974       -0.73655       -0.00000
C          0.00000        0.12228       -0.00000
C          1.25974       -0.73655       -0.00000
Cl         2.75135        0.28504        0.00000
H         -1.31763       -1.37770        0.89177
H         -1.31763       -1.37771       -0.89177
H          0.00001        0.77714       -0.88578
H          0.00001        0.77714        0.88577
H          1.31764       -1.37771        0.89177
H          1.31764       -1.37771       -0.89177
