13
1,3-PROPYLENE_GLYCOL.gamout	Energy:    -269.2062527
C          2.68220        0.08872        2.05406
O          1.30195       -0.00605        1.75726
C          3.46390       -0.34201        0.82055
C          4.97207       -0.27432        1.00226
O          5.34672       -1.14467        2.05524
H          2.96853       -0.55784        2.90568
H          2.97095        1.12783        2.32517
H          0.80443        0.26172        2.53951
H          3.17173        0.29847       -0.02938
H          3.17102       -1.37379        0.56156
H          5.46505       -0.55485        0.04893
H          5.27172        0.77334        1.22123
H          6.30333       -1.09179        2.17122
