32
1,3-DIMETHYLADAMANTANE.gamout	Energy:    -468.6860801
C         -0.63910        0.60594       -0.08709
C          0.37014        0.75544       -1.24101
C          1.21661        0.96227        1.57306
C         -0.07904        2.93012        0.69495
H         -0.89042        1.34733        1.94304
C          2.25226        1.09967        0.43074
H          1.16023       -0.09200        1.89865
H          1.55323        1.54660        2.44870
C          1.75605        0.26872       -0.77804
C          0.46033        2.23581       -1.65595
H          0.03861        0.15146       -2.10386
C         -0.16981        1.45068        1.11301
H         -1.64246        0.93201       -0.41337
H         -0.72938       -0.45493        0.20630
H          2.48338        0.35121       -1.60581
H          1.71206       -0.80000       -0.50080
C          3.63310        0.61873        0.88749
H          3.99643        1.20635        1.74791
H          3.60551       -0.44112        1.19286
H          4.37644        0.71592        0.07794
C          0.92901        3.10917       -0.46619
C          2.30773        2.58644        0.00470
H          2.66577        3.20000        0.85209
H          3.04877        2.71024       -0.80644
C          1.02462        4.58111       -0.87964
H          0.04724        4.96482       -1.21827
H          1.35908        5.21032       -0.03716
H          1.74391        4.71589       -1.70525
H          0.23510        3.54879        1.55519
H         -1.07268        3.30005        0.38455
H          1.16611        2.35007       -2.49838
H         -0.52212        2.59329       -2.01328
