14
1,4-DICHLOROBUTANE.gamout	Energy:   -1077.0256374
C          1.93686        0.93573        1.26823
C          0.87632        1.74576        2.02262
C          0.92684        3.25425        1.82387
C          3.38236        1.35566        1.49653
Cl         0.78837        3.74034        0.07754
Cl         3.85703        1.33534        3.25106
H          1.82055       -0.13024        1.52507
H          1.75661        1.02355        0.18195
H         -0.12305        1.37346        1.74248
H          0.98915        1.57182        3.10755
H          0.09574        3.74843        2.34490
H          1.86811        3.68438        2.19326
H          4.07533        0.67338        0.98588
H          3.57473        2.37488        1.13310
