22
1,4-DIMETHYLCYCLOHEXENE.gamout	Energy:    -312.8293200
C          3.70455        1.72614        1.79049
C          2.51012        1.06393        1.09072
C          1.16322        1.67093        1.52647
C          3.48720        1.92807        3.27599
C          2.26357        1.81845        3.82187
C          4.70908        2.26390        4.08979
C          1.00396        1.50341        3.05191
C          1.01208        3.13612        1.09198
H          4.61450        1.11830        1.63337
H          3.93596        2.70549        1.32664
H          2.62619        1.13020       -0.00464
H          2.50326       -0.01208        1.34091
H          0.35998        1.09458        1.03400
H          2.15571        1.95840        4.90476
H          4.46152        2.44896        5.14638
H          5.21667        3.16346        3.69575
H          5.45215        1.44650        4.05000
H          0.68733        0.46753        3.28453
H          0.18019        2.14350        3.41742
H          1.74124        3.78989        1.59754
H          1.15740        3.24694        0.00419
H          0.00654        3.51786        1.33440
