22
1,4-DIMETHYL-2-ETHENYLBENZENE.gamout	Energy:    -387.7373383
C          0.64266        1.95401        4.04224
C          1.88792        1.44808        4.07375
C          3.01448        1.57243        3.12778
C          2.92825        2.00569        1.77729
C          4.28066        1.20088        3.63342
C          1.63226        2.38841        1.10504
C          4.11287        2.05689        1.02501
C          5.45784        1.26459        2.88360
C          5.35282        1.70420        1.55576
C          6.79353        0.88070        3.47497
H          0.25850        2.58443        3.24125
H         -0.04275        1.75460        4.87109
H          2.14675        0.85941        4.96287
H          4.33782        0.85263        4.66965
H          1.25392        3.36195        1.46263
H          1.77382        2.47328        0.01725
H          0.83913        1.64610        1.28934
H          4.05426        2.38076       -0.01858
H          6.24690        1.76124        0.92722
H          6.67930        0.41888        4.46735
H          7.32960        0.16520        2.82943
H          7.44778        1.76227        3.59216
