21
1,5-PENTANEDIAMINE.gamout	Energy:    -308.0212518
N         -3.82638        0.29919       -0.00421
N          3.82638        0.29926        0.00429
C          0.00001       -0.44566       -0.00002
C         -1.28481        0.38787       -0.00305
C          1.28480        0.38790        0.00294
C         -2.57394       -0.44804        0.00538
C          2.57395       -0.44800       -0.00533
H          0.00220       -1.11410       -0.88182
H         -0.00218       -1.11403        0.88183
H         -1.29580        1.04903       -0.89093
H         -1.29159        1.06075        0.87608
H          1.29576        1.04917        0.89075
H          1.29161        1.06067       -0.87627
H         -2.57400       -1.10799        0.89240
H         -2.57261       -1.12786       -0.86646
H          2.57409       -1.10802       -0.89228
H          2.57256       -1.12775        0.86657
H         -3.87300        0.89962       -0.82900
H         -3.87004        0.92560        0.80121
H          3.87293        0.89977        0.82903
H          3.87012        0.92557       -0.80119
