19
1,5-PENTANEDIOL.gamout	Energy:    -347.7234750
O          2.87291        4.38817        2.77927
C          4.01863        4.22996        1.97608
C          4.83605        2.97897        2.33546
C          4.01816        1.67836        2.36267
C          3.36880        1.26776        1.01773
C          1.84732        1.20557        1.04825
O          1.32579        2.51024        1.29270
H          2.20183        3.78694        2.41222
H          3.74819        4.20654        0.90038
H          4.65280        5.12307        2.11501
H          5.68085        2.89117        1.62617
H          5.27857        3.12674        3.33621
H          4.66326        0.86242        2.72825
H          3.23116        1.80202        3.12608
H          3.73148        0.27556        0.70081
H          3.66279        1.96464        0.21348
H          1.51732        0.49964        1.83692
H          1.47060        0.81869        0.08122
H          0.36558        2.45692        1.38217
