20
1,5-ETHYLCYCLOHEXADIENE.gamout	Energy:    -311.6085117
C         -1.36235        0.36266       -0.06888
C         -0.39747        1.30675       -0.08466
C          1.00803        0.87869       -0.23714
C          1.37993       -0.40395       -0.07462
C          0.36116       -1.45418        0.29600
C         -1.03090       -1.10121       -0.24850
C         -0.64656        2.79581        0.02648
C         -2.09987        3.23937        0.17353
H         -2.41611        0.64293        0.01082
H          1.75683        1.64597       -0.46206
H          2.43381       -0.68987       -0.15365
H          0.67234       -2.44795       -0.06534
H          0.32383       -1.53126        1.40310
H         -1.79664       -1.73287        0.23082
H         -1.07400       -1.34244       -1.33151
H         -0.20112        3.28226       -0.86296
H         -0.05601        3.18026        0.88047
H         -2.70930        2.92707       -0.69021
H         -2.16541        4.33635        0.24823
H         -2.56309        2.81519        1.07929
