24
1,7-DIMETHYLNAPHTHALENE.gamout	Energy:    -463.8876085
C          5.61016        3.90890        0.93338
C          5.67535        5.41667        0.93398
C          4.34466        3.22861        0.90495
C          6.77258        3.15609        0.96012
C          4.31989        1.79282        0.90558
C          3.10135        3.92514        0.87579
C          6.74706        1.73932        0.96051
C          3.05944        1.13177        0.87750
C          5.54422        1.06914        0.93385
C          1.88381        3.26701        0.84843
C          1.88081        1.84269        0.84993
C          0.57532        4.01871        0.81704
H          6.71837        5.76562        0.95698
H          5.19879        5.84705        0.03655
H          5.15971        5.84857        1.80886
H          7.73881        3.66903        0.98182
H          3.10546        5.01734        0.87447
H          7.68878        1.18419        0.98225
H          3.04234        0.03775        0.87810
H          5.51325       -0.02429        0.93401
H          0.92432        1.31133        0.82846
H         -0.01058        3.76234       -0.08240
H         -0.05158        3.76739        1.68998
H          0.73327        5.10762        0.81784
