25
1-AMINOHEPTANE.gamout	Energy:    -331.2602954
C         70.00513       10.03308       -0.01147
C         68.69332        9.24052       -0.00841
C         68.88594        7.72104       -0.00016
C         69.80960       11.55129       -0.01457
C         67.57356        6.92855        0.00299
C         71.11901       12.34174       -0.02555
C         67.77290        5.41214        0.01112
N         70.86524       13.77894        0.02030
H         70.60479        9.74358        0.87195
H         70.60627        9.73552       -0.89125
H         68.09284        9.52822       -0.89185
H         68.09197        9.53832        0.87076
H         69.48604        7.43264        0.88355
H         69.48795        7.42300       -0.87941
H         69.20780       11.84171       -0.89754
H         69.22394       11.86554        0.86702
H         66.97490        7.21869       -0.88008
H         66.97372        7.22821        0.88200
H         71.70599       12.06908        0.87017
H         71.72674       12.01077       -0.89854
H         66.81001        4.87554        0.01306
H         68.33643        5.08564        0.90173
H         68.33810        5.07632       -0.87497
H         71.74469       14.29564        0.05121
H         70.39775       14.07867       -0.83736
