23
1-BROMOHEPTANE.gamout	Energy:   -2849.1200583
C         16.98744       10.07501       -0.00012
C         18.28714        9.26200        0.00011
C         17.21014       11.58781        0.00018
C         18.06354        7.74708       -0.00017
C         19.35727        6.92461        0.00004
C         19.10144        5.41060       -0.00017
C         20.39005        4.60487        0.00006
Br        20.05033        2.66010       -0.00018
H         16.38450        9.79000       -0.88193
H         16.38400        9.78971        0.88127
H         18.89246        9.54366        0.88247
H         18.89291        9.54393       -0.88187
H         16.25534       12.13858       -0.00001
H         17.77883       11.91087        0.88880
H         17.77933       11.91113       -0.88802
H         17.45808        7.46737       -0.88242
H         17.45763        7.46713        0.88171
H         19.96454        7.19782        0.88307
H         19.96493        7.19802       -0.88267
H         18.50044        5.13630       -0.88431
H         18.50002        5.13616        0.88365
H         21.00091        4.79234        0.89372
H         21.00132        4.79250       -0.89328
