20
1-BROMOHEXANE.gamout	Energy:   -2809.8639158
C         -0.09481        9.98257        0.00015
C          1.24718        9.24885       -0.00008
C          2.45920       10.18699        0.00005
C          3.80586        9.45548       -0.00015
C          5.01190       10.40594        0.00008
C          6.33525        9.65609       -0.00011
Br         7.88240       10.87964        0.00031
H         -0.94098        9.27637        0.00007
H         -0.20068       10.62758        0.88892
H         -0.20080       10.62792       -0.88836
H          1.30508        8.58408       -0.88160
H          1.30518        8.58372        0.88117
H          2.40537       10.85228        0.88207
H          2.40529       10.85263       -0.88172
H          3.86096        8.79157       -0.88297
H          3.86100        8.79114        0.88234
H          4.96758       11.06564        0.88346
H          4.96758       11.06608       -0.88298
H          6.45482        9.02766       -0.89350
H          6.45475        9.02713        0.89293
