56
1-BROMOOCTADECANE.gamout	Energy:   -3280.9386767
C          8.79678        0.49011        0.00113
C          7.50437       -0.33801        0.00062
C          7.72172       -1.85704        0.00090
C          8.55736        2.00584        0.00077
C          6.41695       -2.66610        0.00033
C          9.83834        2.85131        0.00112
C          6.61130       -4.18845        0.00051
C          9.57999        4.36434        0.00067
C          5.29491       -4.97946       -0.00011
C         10.85221        5.22284        0.00083
C          5.46838       -6.50447        0.00002
C         10.57772        6.73326        0.00030
C          4.14201       -7.27884       -0.00060
C         11.84993        7.59502        0.00031
C          4.29587       -8.80515       -0.00045
C         11.52995        9.08284       -0.00026
C          2.96216       -9.56247       -0.00109
Br        13.15872       10.19559       -0.00032
C          3.11629      -11.08426       -0.00093
H          9.40573        0.21557        0.88321
H          9.40652        0.21530       -0.88033
H          6.89698       -0.05869       -0.88109
H          6.89604       -0.05846        0.88162
H          8.32652       -2.14061        0.88294
H          8.32738       -2.14081       -0.88051
H          7.94583        2.27602       -0.88100
H          7.94504        2.27643        0.88187
H          5.81395       -2.37724       -0.88129
H          5.81299       -2.37716        0.88128
H         10.45100        2.58514        0.88323
H         10.45170        2.58482       -0.88043
H          7.21176       -4.48119        0.88250
H          7.21261       -4.48135       -0.88086
H          8.96527        4.62685       -0.88123
H          8.96463        4.62740        0.88196
H          4.69608       -4.68205       -0.88171
H          4.69509       -4.68204        0.88083
H         11.46760        4.96459        0.88308
H         11.46813        4.96416       -0.88095
H          6.06505       -6.80513        0.88194
H          6.06588       -6.80525       -0.88130
H          9.96324        6.99197       -0.88238
H          9.96280        6.99267        0.88248
H          3.54685       -6.97429       -0.88227
H          3.54586       -6.97425        0.88040
H         12.46742        7.35877        0.88405
H         12.46783        7.35820       -0.88300
H          4.88791       -9.11511        0.88159
H          4.88878       -9.11525       -0.88187
H         10.96706        9.38599       -0.89383
H         10.96670        9.38666        0.89286
H          2.37083       -9.25242       -0.88253
H          2.36986       -9.25234        0.87968
H          2.13564      -11.58545       -0.00141
H          3.66791      -11.43473        0.88818
H          3.66884      -11.43487       -0.88941
