62
1-BROMOEICOSANE.gamout	Energy:   -3359.4514715
C         -0.27896       -0.16336       -0.00352
C          1.08725        0.52554       -0.00441
C          1.00108        2.05650       -0.00171
C          2.36208        2.76428       -0.00254
C          2.26811        4.29634        0.00009
C          3.62518        5.01402       -0.00079
C          3.51959        6.54574        0.00172
C          4.87102        7.27448        0.00072
C          4.75246        8.80536        0.00304
C          6.09770        9.54605        0.00188
C          5.96602       11.07595        0.00395
C          7.30521       11.82789        0.00245
C          7.16128       13.35668        0.00422
C          8.49494       14.11859        0.00237
C          8.33977       15.64621        0.00373
C          9.66846       16.41714        0.00147
C          9.50056       17.94337        0.00249
C         10.82367       18.72360       -0.00015
C         10.63116       20.24918        0.00059
C         11.95538       20.99776       -0.00226
Br        11.70110       22.95537       -0.00145
H         -0.17875       -1.26051       -0.00551
H         -0.86858        0.11556        0.88646
H         -0.87126        0.11856       -0.89078
H          1.66554        0.19495       -0.88701
H          1.66823        0.19199        0.87531
H          0.42019        2.38479        0.88118
H          0.41760        2.38778       -0.88180
H          2.94220        2.43553       -0.88555
H          2.94489        2.43269        0.87765
H          1.68622        4.62279        0.88278
H          1.68364        4.62569       -0.87985
H          4.20772        4.68961       -0.88378
H          4.21050        4.68692        0.87938
H          2.93526        6.86791        0.88438
H          2.93263        6.87066       -0.87819
H          5.45599        6.95453       -0.88227
H          5.45889        6.95204        0.88089
H          4.16550        9.12281        0.88566
H          4.16283        9.12527       -0.87691
H          6.68527        9.23087       -0.88110
H          6.68829        9.22866        0.88206
H          5.37667       11.38884        0.88659
H          5.37376       11.39094       -0.87600
H          7.89510       11.51722       -0.88057
H          7.89843       11.51541        0.88262
H          6.56981       13.66544        0.88688
H          6.56666       13.66712       -0.87575
H          9.08695       13.81209       -0.88067
H          9.09047       13.81077        0.88260
H          7.74647       15.95123        0.88641
H          7.74307       15.95243       -0.87625
H         10.26214       16.11465       -0.88178
H         10.26599       16.11378        0.88183
H          8.90597       18.24446        0.88530
H          8.90229       18.24519       -0.87760
H         11.41974       18.42974       -0.88415
H         11.42380       18.42936        0.88099
H         10.04570       20.55304        0.88543
H         10.04179       20.55331       -0.88159
H         12.55546       20.78155       -0.89683
H         12.55957       20.78142        0.88953
