12
1-BUTENE.gamout	Energy:    -156.9915252
C          1.30934        2.14088        1.66678
C          0.47311        2.88948        0.94134
C          1.97955        0.87512        1.20564
C          3.51272        0.96477        1.21688
H          1.55575        2.46376        2.68837
H          0.02709        3.80441        1.34245
H          0.19899        2.61328       -0.08321
H          1.66729        0.04386        1.86626
H          1.62325        0.61625        0.19353
H          3.96980        0.00999        0.91031
H          3.86962        1.75025        0.53105
H          3.89203        1.20735        2.22396
