17
1-CHLOROPENTANE.gamout	Energy:    -656.8787256
C          3.18921        1.93526        3.72820
C          2.83147        1.53251        2.29497
C          1.33122        1.30628        2.08275
C          4.67228        2.16116        3.98073
C          0.97168        0.90736        0.65033
Cl         5.65025        0.63938        3.80312
H          2.67290        2.87995        3.98621
H          2.81490        1.17677        4.43805
H          3.18736        2.31439        1.59732
H          3.38523        0.61480        2.03118
H          0.98137        0.52518        2.78265
H          0.77883        2.22383        2.35876
H          5.10059        2.88612        3.27295
H          4.85562        2.52041        5.00265
H          1.47698       -0.02792        0.35527
H          1.27422        1.68591       -0.07047
H         -0.11292        0.75019        0.53535
