34
1-DODECYNE.gamout	Energy:    -469.7942805
C          7.04542        2.22832        5.28840
C          6.17717        1.30758        4.42145
C          4.70063        1.22910        4.84086
C          8.54080        2.23360        4.93277
C          3.89457        2.52130        4.65184
C          8.88250        2.82150        3.55988
C          2.40970        2.38044        5.01095
C         10.40191        2.85793        3.29617
C          1.59096        3.66160        4.81397
C         10.76455        3.40626        1.98860
C          0.11230        3.50587        5.17425
C         11.04834        3.86270        0.90239
H          6.66217        3.26359        5.23888
H          6.94162        1.91847        6.34377
H          6.23243        1.62228        3.36336
H          6.60432        0.28902        4.45540
H          4.63895        0.91160        5.89936
H          4.21539        0.42417        4.25993
H          9.08156        2.80716        5.70707
H          8.93558        1.20147        4.99376
H          3.98479        2.85335        3.59999
H          4.33403        3.33198        5.26104
H          8.40053        2.23879        2.75728
H          8.48003        3.84668        3.47996
H          1.96278        1.56853        4.40579
H          2.32024        2.05021        6.06350
H         10.89932        3.45157        4.08545
H         10.81516        1.83603        3.38288
H          1.67973        3.99195        3.76241
H          2.03318        4.47364        5.42059
H         -0.01622        3.21522        6.23095
H         -0.44134        4.44519        5.01814
H         -0.37290        2.72846        4.55941
H         11.30155        4.26675       -0.05923
