60
1-EICOSENE.gamout	Energy:    -785.0817547
C          6.78287        5.98370        3.75577
C          5.53840        6.29925        2.91327
C          4.81900        5.05886        2.36548
C          7.48218        7.22218        4.33365
C          3.59912        5.38565        1.49311
C          8.74141        6.90521        5.15414
C          2.87087        4.17279        0.89134
C          9.43047        8.13723        5.75819
C          2.12159        3.28473        1.89456
C         10.69917        7.80714        6.55652
C          1.36569        2.12966        1.22302
C         11.45896        9.02365        7.10724
C          0.47408        1.26211        2.12476
C         10.72090        9.87944        8.14705
C          1.19857        0.43450        3.20356
C         10.39115        9.15054        9.46185
C          1.33232        1.08880        4.58699
C          9.69283       10.02808       10.46107
C          0.01536        1.19928        5.35825
C         10.15411       10.34543       11.67401
H          7.50317        5.41204        3.13998
H          6.49925        5.30966        4.58608
H          5.82479        6.95623        2.07018
H          4.82880        6.89065        3.52299
H          5.53251        4.45359        1.77420
H          4.51571        4.41988        3.21468
H          7.74706        7.90938        3.50800
H          6.76630        7.77972        4.96737
H          2.88019        5.98739        2.08165
H          3.92449        6.03996        0.66443
H          9.46302        6.36145        4.51502
H          8.47716        6.20361        5.96805
H          3.59558        3.55455        0.32777
H          2.14633        4.53941        0.14261
H          9.68649        8.84734        4.94897
H          8.70840        8.66930        6.40463
H          1.40518        3.90717        2.46394
H          2.83183        2.88278        2.63736
H         10.44245        7.11845        7.38220
H         11.38872        7.23994        5.90594
H          2.09562        1.47727        0.70600
H          0.72815        2.55011        0.42389
H         12.40696        8.67098        7.55168
H         11.74643        9.67543        6.26292
H         -0.07932        0.57266        1.46607
H         -0.30026        1.89757        2.59297
H         11.34536       10.75793        8.38170
H          9.78905       10.28499        7.71294
H          2.20397        0.16727        2.83147
H          0.67048       -0.52692        3.33305
H         11.31893        8.74720        9.90536
H          9.74602        8.27974        9.24022
H          1.78707        2.08933        4.48902
H          2.04426        0.49384        5.18556
H          8.72523       10.44061       10.14129
H          0.17053        1.65697        6.34816
H         -0.72888        1.81599        4.82714
H         -0.43691        0.20529        5.51797
H          9.59022       10.99678       12.34711
H         11.11241        9.96223       12.04232
