63
1-EICOSANOL.gamout	Energy:    -861.4403171
C          9.50778        0.53447       -0.00158
C          8.22440       -0.30684       -0.00204
C          8.46783       -1.82202       -0.00159
C          9.26351        2.04953       -0.00188
C          7.18276       -2.66102       -0.00174
C         10.54758        2.89023       -0.00118
C          7.42074       -4.17730       -0.00118
C         10.30714        4.40611       -0.00126
C          6.13147       -5.01066       -0.00104
C         11.59460        5.24259       -0.00032
C          6.35992       -6.52849       -0.00036
C         11.36181        6.75994       -0.00024
C          5.06347       -7.35158        0.00002
C         12.65381        7.59015        0.00092
C          5.27792       -8.87107        0.00078
C         12.43109        9.10815        0.00112
C          3.97559       -9.67757        0.00128
C         13.72770        9.92776        0.00239
C          4.19007      -11.18488        0.00202
C         13.50007       11.44064        0.00267
O          2.92490      -11.81403        0.00252
H         10.11903        0.26412        0.88032
H         10.11999        0.26388       -0.88275
H          7.61319       -0.03652       -0.88396
H          7.61244       -0.03616        0.87925
H          9.07896       -2.09264        0.88029
H          9.07963       -2.09317       -0.88286
H          8.65239        2.31973       -0.88389
H          8.65145        2.31995        0.87943
H          6.57210       -2.38900       -0.88353
H          6.57162       -2.38852        0.87959
H         11.15844        2.61871        0.88066
H         11.15958        2.61880       -0.88228
H          8.03079       -4.45041        0.88069
H          8.03117       -4.45114       -0.88257
H          9.69708        4.67856       -0.88330
H          9.69599        4.67850        0.88007
H          5.52212       -4.73543       -0.88271
H          5.52187       -4.73477        0.88026
H         12.20416        4.96812        0.88151
H         12.20548        4.96840       -0.88134
H          6.96818       -6.80570        0.88151
H          6.96829       -6.80658       -0.88189
H         10.75326        7.03567       -0.88232
H         10.75197        7.03540        0.88105
H          4.45647       -7.07159       -0.88151
H          4.45641       -7.07076        0.88127
H         13.26181        7.31237        0.88279
H         13.26329        7.31285       -0.88010
H          5.88267       -9.15435        0.88293
H          5.88253       -9.15534       -0.88115
H         11.82536        9.39020       -0.88107
H         11.82397        9.38980        0.88251
H          3.36432       -9.41912       -0.88182
H          3.36440       -9.41826        0.88418
H         14.33311        9.64642        0.88394
H         14.33460        9.64699       -0.87834
H          4.78954      -11.47278        0.89246
H          4.78931      -11.47371       -0.88827
H         14.45478       11.99048        0.00364
H         12.93212       11.76366       -0.88651
H         12.93065       11.76315        0.89110
H          3.05900      -12.76944        0.00297
