23
1-FLUOROHEPTANE.gamout	Energy:    -375.1105148
C         70.01453       10.04082        0.00012
C         68.70277        9.24830       -0.00007
C         68.89409        7.72891        0.00012
C         69.80577       11.55773       -0.00009
C         67.57824        6.94251       -0.00011
C         71.10604       12.34212        0.00010
C         67.77070        5.42526        0.00007
F         70.84529       13.70143       -0.00012
H         70.61383        9.74964        0.88323
H         70.61424        9.74944       -0.88265
H         68.10414        9.54116       -0.88272
H         68.10379        9.54132        0.88229
H         69.49291        7.43475        0.88289
H         69.49331        7.43458       -0.88232
H         69.21855       11.85945       -0.88552
H         69.21818       11.85964        0.88504
H         66.98156        7.23906       -0.88239
H         66.98114        7.23922        0.88184
H         71.71115       12.10681        0.89554
H         71.71154       12.10659       -0.89502
H         66.80494        4.89397       -0.00014
H         68.33277        5.09106        0.88882
H         68.33321        5.09091       -0.88834
