51
1-HEPTADECENE.gamout	Energy:    -667.3157011
C          6.28241        0.17095        5.59653
C          5.09890        0.66482        6.44190
C          4.17368        1.69261        5.77153
C          7.24568        1.25653        5.09385
C          3.45737        1.19207        4.51018
C          7.94404        2.09557        6.17631
C          2.49536        2.21512        3.89037
C          8.88292        1.29899        7.08903
C          1.79271        1.71180        2.62196
C          9.60436        2.12367        8.16860
C          0.76145        2.67409        2.01124
C         10.62341        3.14678        7.65025
C          1.34287        3.98078        1.44356
C         11.37344        3.88645        8.76438
C          0.31701        4.81784        0.73123
C         12.38829        4.91052        8.25092
C         -0.03661        6.06440        1.05755
H          6.84167       -0.57280        6.18937
H          5.90443       -0.38562        4.72168
H          5.47410        1.09655        7.38600
H          4.49925       -0.21364        6.73993
H          3.41337        2.00500        6.50989
H          4.74158        2.61001        5.53151
H          6.70799        1.94033        4.41424
H          8.01631        0.76986        4.46918
H          4.20155        0.89674        3.74811
H          2.90181        0.26735        4.75713
H          7.19006        2.61548        6.79568
H          8.51092        2.89486        5.67007
H          1.72980        2.50054        4.63692
H          3.05719        3.14065        3.66833
H          9.63669        0.77807        6.46793
H          8.31201        0.50191        7.59480
H          2.55172        1.46238        1.85590
H          1.28113        0.76073        2.85512
H         10.12333        1.42360        8.84833
H          8.85266        2.64088        8.79504
H         -0.00986        2.92136        2.76401
H          0.22973        2.14417        1.20132
H         10.12009        3.89029        7.00566
H         11.35654        2.63199        7.00017
H          2.15146        3.72421        0.73066
H          1.81189        4.57725        2.24420
H         11.88983        3.14911        9.40670
H         10.64158        4.39238        9.42113
H         -0.17814        4.33759       -0.12470
H         11.90272        5.68898        7.63799
H         12.90260        5.41670        9.08269
H         13.16158        4.43343        7.62474
H         -0.79836        6.60733        0.49167
H          0.42356        6.59077        1.90128
