24
1-HEPTANETHIOL.gamout	Energy:    -674.0027364
C         -0.03815       -0.11266        0.00011
C          1.28887        0.64855       -0.00010
C          1.12071        2.17167        0.00009
C          2.44484        2.94248       -0.00012
C          2.27234        4.46487        0.00009
C          3.60054        5.23158       -0.00012
C          3.41024        6.74799        0.00010
S          5.05289        7.58484       -0.00028
H          0.11937       -1.20344       -0.00003
H         -0.64299        0.13595        0.88891
H         -0.64335        0.13607       -0.88841
H          1.88458        0.34964       -0.88228
H          1.88495        0.34948        0.88177
H          0.52509        2.47226        0.88283
H          0.52472        2.47243       -0.88234
H          3.04048        2.64295       -0.88270
H          3.04087        2.64276        0.88214
H          1.67851        4.76530        0.88350
H          1.67809        4.76551       -0.88296
H          4.19457        4.93969       -0.88482
H          4.19501        4.93946        0.88420
H          2.84579        7.06322        0.89227
H          2.84523        7.06342       -0.89164
H          4.58512        8.85526        0.00010
