51
1-HEXADECANOL.gamout	Energy:    -704.4166117
C         -8.16251        1.93253        1.45304
C         -6.94501        2.69667        0.93027
H         -9.08414        2.53016        1.36554
H         -8.04246        1.66144        2.51604
H         -8.31988        0.99569        0.89157
C         -5.63432        1.90600        1.02402
H         -6.83567        3.64565        1.48735
H         -7.11693        2.98710       -0.12290
C         -4.40853        2.66602        0.50332
H         -5.74244        0.95771        0.46363
H         -5.46370        1.61164        2.07730
C         -3.09376        1.87908        0.59063
H         -4.30191        3.61361        1.06486
H         -4.58538        2.96184       -0.54838
C         -1.86972        2.64846        0.07653
H         -3.19659        0.93486        0.02274
H         -2.92097        1.57748        1.64131
C         -0.55119        1.86651        0.15783
H         -1.76647        3.59134        0.64663
H         -2.04687        2.95367       -0.97241
C          0.67065        2.65018       -0.34041
H         -0.64745        0.92910       -0.42247
H         -0.38071        1.55243        1.20522
C          1.99495        1.87675       -0.26503
H          0.76568        3.58474        0.24477
H          0.49617        2.97120       -1.38507
C          3.21439        2.68202       -0.73498
H          1.91095        0.95066       -0.86513
H          2.15970        1.54316        0.77723
C          4.54593        1.92030       -0.66503
H          3.29508        3.60283       -0.12624
H          3.04673        3.02720       -1.77302
C          5.76295        2.75344       -1.09143
H          4.48101        1.01198       -1.29397
H          4.70073        1.55779        0.36903
C          7.10121        2.00284       -1.02742
H          5.60645        3.13242       -2.11936
H          5.82574        3.65302       -0.45008
C          8.31681        2.86377       -1.39453
H          7.05714        1.11963       -1.69311
H          7.24092        1.60158       -0.00568
C          9.65072        2.11226       -1.33152
H          8.37453        3.73120       -0.71506
H          8.18327        3.28040       -2.41142
C         10.86728        2.98301       -1.61670
H          9.65196        1.27299       -2.05047
H          9.78111        1.66761       -0.32816
O         10.95858        3.98189       -0.61763
H         10.77524        3.43293       -2.62887
H         11.77494        2.34489       -1.63251
H         11.71268        4.54890       -0.81919
