16
1-HEXYNE.gamout	Energy:    -234.2591734
C          4.66855        1.92841        1.05577
C          3.40930        1.04634        0.95105
C          2.10986        1.84764        1.06726
C          5.92471        1.18411        0.95788
C          0.85237        0.98248        0.96628
C          6.96261        0.56212        0.88738
H          4.64466        2.70247        0.26657
H          4.65331        2.47750        2.01531
H          3.43098        0.50069       -0.00874
H          3.44511        0.27448        1.74017
H          2.10585        2.39384        2.02862
H          2.08968        2.62539        0.28136
H         -0.06310        1.58936        1.05347
H          0.80922        0.44945        0.00150
H          0.82464        0.22093        1.76409
H          7.88247        0.01197        0.82386
