17
1-IODOPENTANE.gamout	Energy:    -494.5742326
C         59.04315       33.99214       -0.00012
C         58.27275       32.66511        0.00010
C         60.56278       33.81657        0.00011
C         56.74596       32.85069       -0.00011
C         56.01033       31.51926        0.00009
I         53.83055       31.74882       -0.00010
H         58.73940       34.58566       -0.88157
H         58.73913       34.58610        0.88094
H         58.57195       32.07005        0.88285
H         58.57214       32.06963       -0.88232
H         61.07748       34.79039       -0.00007
H         60.90447       33.26042        0.88941
H         60.90471       33.25997       -0.88881
H         56.44555       33.43971       -0.88353
H         56.44533       33.44006        0.88302
H         56.21846       30.91978        0.89545
H         56.21848       30.91942       -0.89501
