11
1-IODOPROPANE.gamout	Energy:    -416.0616998
C          0.14929        0.32425        0.71108
C          1.68162        0.24630        0.71109
C          2.30480        1.63286        0.71111
I          4.49480        1.59105        0.71130
H         -0.29049       -0.68557        0.71090
H         -0.22959        0.85319       -0.17942
H         -0.22958        0.85286        1.60178
H          2.02753       -0.31526       -0.17284
H          2.02750       -0.31528        1.59503
H          2.04257        2.21301        1.60543
H          2.04284        2.21293       -0.18333
