24
1-METHYL-2-PROPYLBENZENE.gamout	Energy:    -388.9599810
C          1.74238        4.40973        2.12955
C          0.80723        5.60087        1.91745
C          2.92145        4.38217        1.13747
C          3.85586        3.20465        1.33062
C          3.60346        2.00940        0.63878
C          4.40717        0.87933        0.80512
C          5.49410        0.93466        1.67928
C          5.76054        2.11868        2.37136
C          4.96002        3.26138        2.21559
C          5.29840        4.52298        2.97663
H          1.17492        3.46708        2.03452
H          2.13362        4.42205        3.16211
H          1.34171        6.55869        2.03899
H         -0.02758        5.59306        2.63676
H          0.37242        5.59477        0.90332
H          3.47795        5.33121        1.21795
H          2.51481        4.35348        0.11148
H          2.75436        1.96894       -0.05111
H          4.18646       -0.03704        0.25107
H          6.13690        0.06179        1.82186
H          6.61649        2.16094        3.05194
H          6.16578        4.36740        3.63526
H          4.46084        4.86606        3.60610
H          5.54653        5.35639        2.29640
