15
1-METHOXYPROPANE.gamout	Energy:    -233.3323590
O          1.20398       -0.45002        0.00505
C         -1.18461       -0.50874        0.00347
C          0.05979        0.36851        0.00155
C         -2.48429        0.29568       -0.00056
C          2.41158        0.25978        0.00390
H         -1.13724       -1.17179       -0.87758
H         -1.13891       -1.16586        0.88904
H          0.05875        1.03314       -0.89130
H          0.05751        1.03908        0.88993
H         -2.55919        0.94065       -0.89259
H         -3.36272       -0.36890        0.00087
H         -2.56097        0.94685        0.88681
H          2.51713        0.90434       -0.89388
H          3.23423       -0.47143        0.00638
H          2.51596        0.90918        0.89832
