31
1-METHYLDECALIN.gamout	Energy:    -430.6240131
C          0.00004        0.50537       -0.19920
C          0.35543       -0.94167        0.22976
C         -1.42121        0.90684        0.27191
C          1.09564        1.48357        0.26681
C         -0.71025       -1.94823       -0.22560
C          1.76132       -1.34087       -0.24781
C         -2.46215       -0.13434       -0.18081
C         -2.10866       -1.55757        0.25786
C          2.49485        1.07430       -0.20880
C          2.83920       -0.35661        0.21716
C         -1.83847        2.30986       -0.18650
H         -0.00984        0.52163       -1.30958
H          0.36952       -0.95213        1.33927
H         -1.41031        0.90388        1.38064
H          1.08318        1.53105        1.37300
H          0.87254        2.50288       -0.08654
H         -0.44319       -2.95832        0.13200
H         -0.70469       -2.00188       -1.33118
H          1.76349       -1.39157       -1.35362
H          1.99430       -2.36112        0.10516
H         -2.53921       -0.10180       -1.28473
H         -3.45736        0.15083        0.20289
H         -2.86086       -2.27196       -0.11867
H         -2.14541       -1.62044        1.36124
H          3.24758        1.78454        0.17461
H          2.53748        1.14364       -1.31192
H          3.82648       -0.65236       -0.17761
H          2.92089       -0.39828        1.31945
H         -1.81675        2.38951       -1.28762
H         -2.86656        2.53852        0.14029
H         -1.18742        3.09878        0.21928
