25
1-N-BUTYLCYCLOPENTENE.gamout	Energy:    -352.0770664
C          2.86299        3.68648        1.22695
C          1.41317        3.87219        0.84817
C          3.14915        2.42521        1.59035
C          0.75055        2.56567        1.35488
C          1.90907        1.55056        1.50140
C          4.49552        1.88244        1.98282
C          5.93924        0.82759        3.85605
C          4.59372        1.45350        3.46014
C          7.13845        1.77783        3.79549
H          3.60271        4.49057        1.16335
H          1.30900        3.98939       -0.24889
H          0.96139        4.77573        1.29397
H         -0.05309        2.20820        0.69261
H          0.29793        2.74658        2.34382
H          1.98963        0.88095        0.62184
H          1.78119        0.88804        2.37472
H          4.73098        1.00552        1.34788
H          5.26498        2.64117        1.76433
H          6.13366       -0.04940        3.21050
H          5.84932        0.43212        4.88335
H          3.79138        0.72735        3.67813
H          4.39287        2.33294        4.09922
H          8.05848        1.27981        4.14257
H          6.98040        2.66371        4.43475
H          7.33137        2.14054        2.77262
