22
1-N-PROPYLCYCLOPENTENE.gamout	Energy:    -312.8208637
C          3.97626        2.80038        2.34841
C          5.12851        1.98710        2.89076
C          3.02654        2.03838        1.77973
C          4.57792        0.53932        2.86580
C          3.40763        0.56955        1.85542
C          1.77509        2.46450        1.06032
C          0.85864        4.36541        2.53918
C          1.37763        3.94376        1.16121
H          3.96211        3.89263        2.38713
H          6.02222        2.09898        2.24498
H          5.44284        2.30364        3.90076
H          5.34625       -0.20775        2.61281
H          4.19070        0.27957        3.86482
H          3.71412        0.20754        0.85366
H          2.56166       -0.07102        2.16271
H          0.93408        1.83707        1.41630
H          1.89412        2.18986       -0.00659
H          0.59199        5.43495        2.55676
H          1.60537        4.19326        3.32993
H         -0.04548        3.79436        2.81149
H          2.23655        4.57525        0.87240
H          0.59361        4.14229        0.40961
