20
1-NAPHTHYLAMINE.gamout	Energy:    -440.6549585
C          6.86103        1.17344        1.54714
C          6.90255        1.83959        0.29822
C          5.72119        0.49878        1.93200
C          5.80916        1.80007       -0.54471
C          4.57346        0.44116        1.09050
C          3.38482       -0.22974        1.49432
C          2.29311       -0.25728        0.65288
C          4.62836        1.08995       -0.18999
C          3.48417        1.01037       -1.06374
N          3.51937        1.63116       -2.30861
C          2.34274        0.34945       -0.62193
H          7.73045        1.20568        2.20936
H          7.79785        2.39499        0.00659
H          5.67820       -0.00418        2.90232
H          5.84750        2.34762       -1.48913
H          3.35173       -0.71441        2.47325
H          1.37596       -0.76765        0.96000
H          2.74533        1.40124       -2.92236
H          4.40737        1.59955       -2.79787
H          1.47178        0.29054       -1.28185
