28
1-NONANAL.gamout	Energy:    -428.4215409
C          4.26046        2.40346        2.15457
C          3.27956        2.88406        3.22864
C          3.20825        1.96896        4.45517
C          4.32842        3.32131        0.92979
C          2.22707        2.44687        5.53012
C          5.31200        2.83108       -0.14621
C          2.15549        1.53137        6.75698
C          5.37993        3.76650       -1.33059
C          1.17361        2.01315        7.82631
O          5.12419        3.46549       -2.46890
H          3.97938        1.38445        1.83041
H          5.27070        2.30939        2.59550
H          2.27103        2.97880        2.78410
H          3.56109        3.90461        3.54964
H          4.21732        1.87410        4.89898
H          2.92752        0.94852        4.13312
H          4.61347        4.34033        1.25112
H          3.32176        3.41451        0.48353
H          1.21775        2.54138        5.08636
H          2.50701        3.46769        5.85258
H          5.04375        1.82773       -0.51415
H          6.32841        2.77412        0.28964
H          3.16518        1.43752        7.19799
H          1.87703        0.51196        6.43156
H          5.68660        4.81912       -1.07385
H          1.44644        3.01496        8.19969
H          0.14724        2.08089        7.42697
H          1.14958        1.33075        8.69127
