27
1-NONENE.gamout	Energy:    -353.2729771
C          4.78246        0.64012       -1.19676
C          3.91578        0.59062       -0.18045
C          2.49596        1.08524       -0.21340
C          1.45677       -0.02315        0.03103
C          0.00963        0.47924        0.01238
C         -1.03029       -0.61813        0.26035
C         -2.47823       -0.11773        0.24104
C         -3.51860       -1.21389        0.49448
C         -4.96210       -0.70691        0.47363
H          5.80126        0.25316       -1.10023
H          4.50588        1.07272       -2.16487
H          4.24336        0.14596        0.76987
H          2.36746        1.86281        0.56439
H          2.29364        1.57790       -1.18072
H          1.58599       -0.81248       -0.73151
H          1.66314       -0.50796        1.00354
H         -0.10962        1.27395        0.77297
H         -0.19635        0.96431       -0.96025
H         -0.90905       -1.41397       -0.49852
H         -0.82441       -1.10124        1.23407
H         -2.59819        0.67976        0.99887
H         -2.68623        0.36384       -0.73322
H         -3.39726       -2.01160       -0.26158
H         -3.30954       -1.69276        1.46892
H         -5.21496       -0.25710       -0.50157
H         -5.68052       -1.52151        0.66110
H         -5.12666        0.06572        1.24395
