22
1-OCTYNE.gamout	Energy:    -312.7703961
C          5.46657        1.45485        0.79185
C          4.09716        0.88905        1.19385
C          3.07857        1.92797        1.67973
C          6.30833        1.94247        1.99000
C          1.72444        1.32237        2.06498
C          7.62341        2.46461        1.61680
C          0.69464        2.35916        2.51819
C          8.71043        2.89838        1.30167
H          6.04109        0.68114        0.25593
H          5.33540        2.28867        0.07991
H          3.67025        0.35326        0.32718
H          4.23851        0.12260        1.97901
H          3.48211        2.48235        2.54709
H          2.93090        2.68398        0.88557
H          5.76145        2.72636        2.54297
H          6.44297        1.10810        2.70301
H          1.32447        0.75359        1.20521
H          1.87641        0.57893        2.86899
H          0.49087        3.09523        1.72218
H         -0.26334        1.88637        2.78858
H          1.05020        2.91880        3.40019
H          9.67336        3.28273        1.02261
