27
1-PROPYLNAPHTHALENE.gamout	Energy:    -503.1376106
C          1.53967        2.89566        4.83187
C          1.09531        1.73742        5.43703
C          2.92963        3.20274        4.74166
C          2.01864        0.81584        5.98859
C          3.37018        1.07958        5.92571
C          3.86217        2.26557        5.31062
C          5.25670        2.54296        5.25314
C          3.42612        4.40389        4.12313
C          4.79417        4.62406        4.10619
C          2.49030        5.41129        3.48577
C          5.71198        3.70093        4.66480
C          3.03405        4.93989        1.00480
C          1.95750        5.02524        2.08738
H          0.80753        3.59040        4.41781
H          0.02334        1.52999        5.49298
H          1.65694       -0.09920        6.46494
H          4.09017        0.37588        6.35365
H          5.95655        1.82364        5.68769
H          5.17883        5.54011        3.64836
H          1.63144        5.59738        4.15289
H          3.02052        6.37524        3.40096
H          6.78304        3.91678        4.62620
H          2.59477        4.67832        0.02849
H          3.79298        4.17742        1.24361
H          3.55932        5.90328        0.88465
H          1.20283        5.77644        1.79325
H          1.42424        4.06101        2.14954
