34
1-UNDECANAL.gamout	Energy:    -506.9328529
C          5.90780        2.91875        5.88965
C          5.42829        3.92095        4.82661
C          4.15941        3.51343        4.06610
C          4.97649        2.75068        7.09758
C          3.75926        4.49399        2.95541
C          5.52751        1.79719        8.16584
C          2.49182        4.09170        2.19022
C          4.59381        1.62264        9.37667
C          2.09081        5.06975        1.08036
C          5.19932        0.75582       10.45660
C          0.82582        4.65479        0.32744
O          4.70834       -0.25385       10.89324
H          6.90012        3.24296        6.25124
H          6.06960        1.93304        5.41372
H          5.27036        4.90782        5.30199
H          6.24583        4.06798        4.09872
H          4.30922        2.50774        3.62902
H          3.31473        3.41060        4.77148
H          4.79315        3.74169        7.55439
H          3.98948        2.38285        6.76578
H          3.61531        5.49984        3.39392
H          4.59708        4.59845        2.24002
H          6.51053        2.16505        8.51437
H          5.71687        0.80707        7.71296
H          2.63412        3.08511        1.75260
H          1.65137        3.99029        2.90316
H          3.62613        1.18208        9.08738
H          4.39513        2.61445        9.82781
H          1.94607        6.07537        1.51708
H          2.92750        5.17283        0.36470
H          6.19035        1.12467       10.84465
H         -0.04099        4.57885        1.00615
H          0.94898        3.67100       -0.15702
H          0.56768        5.38121       -0.45899
