33
1-UNDECENE.gamout	Energy:    -431.7817563
C          5.42336        2.11611        2.46097
C          3.94136        2.31528        2.79791
C          3.02896        2.57957        1.59158
C          6.28766        1.76981        3.68001
C          3.33204        3.84774        0.78107
C          7.77547        1.56863        3.36579
C          3.26402        5.17785        1.55687
C          8.62971        1.23493        4.59356
C          1.92355        5.47675        2.16517
C         10.11204        1.03220        4.27526
C          1.12507        6.48636        1.80574
H          5.82769        3.02850        1.98520
H          5.51874        1.31379        1.70432
H          3.84396        3.13763        3.53072
H          3.57099        1.41386        3.31838
H          1.98366        2.61161        1.94460
H          3.08428        1.71476        0.90601
H          6.18178        2.57240        4.43479
H          5.89238        0.85297        4.15789
H          2.62106        3.89508       -0.06143
H          4.33551        3.76974        0.32889
H          7.88630        0.76148        2.61649
H          8.17458        2.48249        2.88482
H          3.54119        5.99675        0.87190
H          4.02815        5.17293        2.35691
H          8.23134        0.32356        5.07756
H          8.52128        2.04430        5.33938
H          1.58388        4.80336        2.96310
H         10.26283        0.20118        3.56500
H         10.55466        1.93538        3.82071
H         10.68997        0.80150        5.18416
H          0.15575        6.64785        2.28507
H          1.41372        7.19309        1.01930
