32
10-UNDECENOATE-1.gamout	Energy:    -580.2963883
O          5.90673       -4.42689       -0.01202
O          5.98066       -2.16242       -0.00220
C         -0.41992       -0.28105        0.00295
C          1.11309       -0.35670        0.00280
C         -0.97973        1.14890        0.00815
C          1.69019       -1.78120       -0.00060
C         -2.51055        1.23574        0.00450
C          3.22442       -1.83948       -0.00312
C         -3.05210        2.67187        0.01629
C          3.83073       -3.24255       -0.00423
C         -4.56252        2.76650        0.01025
C          5.41487       -3.27976       -0.00652
C         -5.27082        3.89939       -0.03286
H         -0.81210       -0.82716        0.88259
H         -0.81200       -0.82108       -0.88049
H          1.50113        0.19191       -0.87705
H          1.50170        0.18836        0.88451
H         -0.58649        1.69689       -0.86970
H         -0.59009        1.68903        0.89236
H          1.29798       -2.32690       -0.88191
H          1.30080       -2.32926        0.88063
H         -2.90781        0.70691       -0.88250
H         -2.91164        0.69169        0.88078
H          3.62147       -1.28946       -0.87498
H          3.62455       -1.29153        0.86884
H         -2.64668        3.22386       -0.85232
H         -2.65959        3.20200        0.90501
H          3.48539       -3.82004       -0.88428
H          3.48682       -3.82165        0.87507
H         -5.10791        1.81316        0.04867
H         -4.78607        4.88230       -0.06964
H         -6.36449        3.88891       -0.02896
