29
2,2,5-TRIMETHYLHEXANE.gamout	Energy:    -354.4968423
C          3.23436       -0.03521       -0.04956
C          1.88889        0.48860        0.47093
C          0.72238       -0.34033       -0.10757
C         -0.67359        0.22884        0.17321
C         -1.88681       -0.51842       -0.44752
C         -3.16859        0.22135       -0.01610
H          4.07373        0.57946        0.31552
H          3.41252       -1.07241        0.28521
H          3.27030       -0.03203       -1.15157
C          1.88342        0.53245        2.00578
H          1.77111        1.52716        0.10439
H          0.87236       -0.41997       -1.19822
H          0.80107       -1.37061        0.28512
H         -0.83765        0.27585        1.26418
H         -0.70275        1.27720       -0.17955
C         -1.80917       -0.51949       -1.98658
C         -1.95675       -1.97049        0.06547
H         -4.06818       -0.27082       -0.42206
H         -3.26557        0.24489        1.08230
H         -3.16775        1.26474       -0.37397
H         -1.99059       -2.00162        1.16771
H         -1.08994       -2.56663       -0.26137
H         -2.86286       -2.47528       -0.30960
H         -0.93668       -1.08140       -2.35587
H         -1.74233        0.50756       -2.38404
H         -2.70780       -0.98724       -2.42264
H          2.73639        1.11694        2.38844
H          1.96145       -0.48518        2.42788
H          0.96612        0.99093        2.40705
