32
2,2,3-TRIMETHYLHEPTANE.gamout	Energy:    -393.7448433
C         99.10399       54.11083        1.39150
C         97.92885       54.11980        0.41371
C         97.07958       55.39322        0.48448
C         95.89423       55.39376       -0.48824
C         94.99780       56.66509       -0.43815
C         95.21326       57.65261       -1.64403
C         93.52773       56.26110       -0.23213
C         96.70484       58.02747       -1.76230
C         94.74718       57.03932       -2.98058
C         94.42661       58.95779       -1.40070
H         99.69309       53.18235        1.31359
H         99.79044       54.95462        1.20486
H         98.75811       54.19645        2.43597
H         97.28271       53.24273        0.60544
H         98.30631       53.99450       -0.61830
H         97.72652       56.26902        0.29582
H         96.69865       55.51903        1.51607
H         95.27425       54.50799       -0.26236
H         96.26854       55.22521       -1.51251
H         95.29272       57.23564        0.46279
H         92.85781       57.12835       -0.13126
H         93.42357       55.66354        0.68857
H         93.15307       55.64032       -1.06272
H         96.85452       58.75647       -2.57597
H         97.07668       58.48951       -0.83209
H         97.34189       57.15742       -1.98424
H         94.93970       57.73822       -3.81158
H         93.66742       56.82156       -2.98214
H         95.27957       56.10266       -3.21126
H         94.69295       59.41464       -0.43217
H         94.64998       59.69745       -2.18757
H         93.33770       58.79674       -1.40775
