32
2,2,4,4-TETRAMETHYLHEXANE.gamout	Energy:    -393.7348010
C         -1.94096        0.80167        1.79655
C         -0.65911        1.53467        1.38716
C          0.63951        0.70123        1.17165
C          1.82514        1.64720        1.48912
C          0.72555       -0.47038        2.16438
C          0.88380        0.23505       -0.30412
C         -0.07144       -0.60466       -1.21272
C          0.75806       -0.98738       -2.45736
C         -0.56056       -1.91076       -0.56636
C         -1.27925        0.20802       -1.70855
H         -2.77867        1.51440        1.86943
H         -2.24229        0.02094        1.08256
H         -1.84226        0.32120        2.78277
H         -0.44772        2.27703        2.17651
H         -0.84591        2.12957        0.47683
H          2.79484        1.16282        1.28946
H          1.77817        2.56364        0.87786
H          1.81473        1.95117        2.54882
H          1.68671       -0.99929        2.05660
H         -0.07513       -1.20870        2.03155
H          0.66791       -0.10371        3.20255
H          1.10713        1.15006       -0.88088
H          1.83631       -0.32150       -0.27140
H          0.14195       -1.53800       -3.18727
H          1.15777       -0.09409       -2.96470
H          1.61277       -1.62933       -2.18945
H         -1.08655       -2.52840       -1.31251
H         -1.26208       -1.73717        0.26192
H          0.28029       -2.50796       -0.17872
H         -0.95725        1.13130       -2.21762
H         -1.86259       -0.38242       -2.43396
H         -1.96110        0.49304       -0.89730
