32
2,2,3,4,4-PENTAMETHYLPENTANE.gamout	Energy:    -393.7292058
C         -0.20162       38.51875        0.56157
C          1.17799       38.13158       -0.01072
C          2.28902       39.26117        0.13341
C          1.64618       36.90760        0.81672
C          0.97161       37.66814       -1.47074
C          1.92867       40.78639       -0.13117
C          3.55804       38.85134       -0.64720
C          1.24955       41.03745       -1.49272
C          1.04157       41.37418        0.99204
C          3.23178       41.62518       -0.10244
H         -0.86354       37.63716        0.53909
H         -0.69932       39.30791       -0.01955
H         -0.13449       38.85042        1.60902
H          2.56436       39.23826        1.20422
H          2.61419       36.50925        0.47807
H          0.91275       36.08811        0.74015
H          1.74467       37.16544        1.88440
H          0.21462       36.86684       -1.50548
H          0.61692       38.48043       -2.12096
H          1.89169       37.26040       -1.91526
H          4.45269       39.36472       -0.26984
H          3.76012       37.77479       -0.56288
H          3.47661       39.08089       -1.72173
H          1.14628       42.12170       -1.66794
H          1.83908       40.62922       -2.32919
H          0.24005       40.60405       -1.54797
H          0.96004       42.46708        0.87035
H          1.48311       41.18718        1.98523
H          0.02063       40.97672        0.99845
H          3.80792       41.44932        0.82181
H          3.89302       41.42038       -0.95689
H          2.98453       42.69867       -0.13589
