32
2,2,5-TRIMETHYLHEPTANE.gamout	Energy:    -393.7483564
C         -0.14110       53.32433       -0.57280
C          1.34674       53.10292       -0.29380
C          2.17821       54.35858        0.04230
C          1.67917       55.10732        1.30886
C          3.65905       53.97497        0.18024
C          0.76456       56.30490        1.01312
C          0.18041       57.08282        2.22308
C         -0.64406       58.26146        1.66802
C         -0.74673       56.18008        3.05989
C          1.29956       57.64255        3.12184
H         -0.63046       52.37920       -0.86027
H         -0.67770       53.71164        0.30808
H         -0.29626       54.04048       -1.39769
H          1.80175       52.61645       -1.17569
H          1.45850       52.38089        0.53739
H          2.09566       55.05158       -0.81738
H          1.17002       54.38700        1.97403
H          2.55576       55.46452        1.87475
H          4.29299       54.86357        0.33551
H          4.02958       53.45318       -0.71785
H          3.81467       53.30217        1.04189
H          1.33240       57.02137        0.39017
H         -0.08292       55.97588        0.38714
H         -1.10124       58.84834        2.48236
H         -0.01335       58.94518        1.07529
H         -1.45870       57.90748        1.01386
H         -1.22284       56.75216        3.87400
H         -0.20123       55.34341        3.52537
H         -1.55314       55.75132        2.44060
H          1.99993       58.27054        2.54522
H          0.87622       58.26787        3.92579
H          1.88427       56.84244        3.60314
