24
2,2-DIMETHYL-TRANS-3-HEXENE.gamout	Energy:    -314.0200261
C          3.39142        2.11735        2.59368
C          1.99246        2.13288        1.99896
C          4.46132        2.82784        2.21576
C          1.86140        3.10782        0.81790
C          1.65407        0.70202        1.52058
C          0.99612        2.53984        3.10922
C          5.82355        2.74578        2.85171
C          6.91781        2.28310        1.87782
H          3.50821        1.42630        3.44181
H          4.37814        3.52334        1.37100
H          0.83492        3.08756        0.41667
H          2.08024        4.14391        1.12250
H          2.54602        2.84335       -0.00401
H          2.33791        0.38159        0.71806
H          0.62236        0.65057        1.13327
H          1.73891       -0.02607        2.34446
H         -0.04174        2.50828        2.73659
H          1.06157        1.85990        3.97506
H          1.19952        3.56145        3.46880
H          6.10028        3.74228        3.24603
H          5.78658        2.06680        3.72119
H          6.98664        2.95396        1.00471
H          7.90655        2.26816        2.36494
H          6.70879        1.26905        1.49967
