29
2,2-DIMETHYL-3-ETHYLPENTANE.gamout	Energy:    -354.4864072
C          3.48875        2.14259        2.59629
C          1.91977        2.17418        2.72228
C          4.08093        3.33161        1.78317
C          4.21249        2.00815        3.95633
C          1.27613        2.33963        1.32995
C          1.44112        3.32146        3.63413
C          1.41016        0.83511        3.29876
C          4.51475        2.98682        0.35537
C          5.65354        1.50318        3.84039
H          3.71297        1.21721        2.03100
H          4.95633        3.73727        2.31787
H          3.35977        4.16532        1.75249
H          3.66018        1.31933        4.61493
H          4.20986        2.98623        4.47041
H          0.17672        2.30662        1.40929
H          1.58235        1.52784        0.64921
H          1.53742        3.29659        0.85247
H          1.80807        3.20763        4.66633
H          0.33934        3.34423        3.67932
H          1.77279        4.30649        3.26703
H          0.30774        0.81368        3.30670
H          1.74302        0.66420        4.33407
H          1.75331       -0.01833        2.68973
H          4.92818        3.86781       -0.16343
H          3.67540        2.61089       -0.25120
H          5.29428        2.20596        0.35321
H          5.68928        0.49647        3.38963
H          6.13607        1.43901        4.82953
H          6.27791        2.16351        3.21587
