32
2,2-DIMETHYLOCTANE.gamout	Energy:    -393.7490279
C          0.62101        2.53756        1.17190
C          0.73821        1.63547        2.40184
C          2.05040        0.84408        2.50202
C          3.31261        1.69278        2.68986
C          4.58488        0.85776        2.89478
C          5.88067        1.67895        3.08089
C          6.80238        1.87943        1.84970
C          7.41403        0.53727        1.41804
C          7.94168        2.82812        2.25677
C          6.04561        2.49757        0.66518
H          0.73776        1.95931        0.23878
H          1.38407        3.33319        1.16287
H         -0.36344        3.03103        1.13393
H         -0.10078        0.91760        2.39935
H          0.61199        2.24478        3.31634
H          2.16615        0.21730        1.59668
H          1.96755        0.13784        3.34812
H          3.17444        2.35593        3.56529
H          3.44582        2.36172        1.82301
H          4.69791        0.15272        2.05203
H          4.43489        0.22144        3.78441
H          6.49513        1.20554        3.86538
H          5.61432        2.67524        3.47727
H          6.64449       -0.18927        1.11295
H          8.09527        0.67174        0.56189
H          7.99492        0.08539        2.23883
H          8.64991        2.97809        1.42510
H          8.51171        2.42819        3.11169
H          7.55464        3.81839        2.54890
H          5.24014        1.83819        0.30615
H          6.72673        2.67505       -0.18330
H          5.59401        3.46521        0.93812
