26
2,3,4-TRIMETHYLPENTANE.gamout	Energy:    -315.2339839
C          0.55663        4.16619        0.85571
C          1.52499        3.02057        0.41879
C          1.38037        2.55642       -1.06224
C          1.52607        1.82829        1.38842
C          1.24271        5.11209        1.85625
C         -0.79112        3.69449        1.42713
C          1.81959        3.64229       -2.05684
C          0.00084        2.00284       -1.45015
H          0.33532        4.76730       -0.04398
H          2.54072        3.45453        0.46886
H          2.10025        1.72264       -1.17123
H          0.58523        1.25615        1.35716
H          2.34257        1.12852        1.14453
H          1.67560        2.15382        2.43056
H          0.57265        5.93729        2.14933
H          1.53108        4.58032        2.77952
H          2.15696        5.55557        1.42921
H         -1.45696        4.55714        1.59721
H         -1.31758        2.99896        0.75770
H         -0.66590        3.18931        2.39905
H          1.83955        3.24749       -3.08611
H          1.13106        4.50409       -2.05516
H          2.82863        4.02067       -1.82346
H         -0.76798        2.79300       -1.46482
H          0.03487        1.56758       -2.46271
H         -0.33982        1.21055       -0.76523
