21
2,3,3-TRIMETHYL-1-BUTENE.gamout	Energy:    -274.7591804
C          3.29478        2.28491        2.06537
C          1.77403        2.18634        1.83537
C          1.28922        3.41009        1.02075
C          1.38489        0.91288        1.06384
C          1.03884        2.16508        3.19751
C          3.80789        3.48357        2.83475
C          4.16583        1.36707        1.61785
H          0.20664        3.33457        0.82590
H          1.46116        4.35849        1.55282
H          1.80482        3.46880        0.04816
H          1.68099        0.00114        1.60631
H          1.84860        0.88146        0.06513
H          0.29240        0.87744        0.92400
H         -0.04767        2.06101        3.04224
H          1.37625        1.31713        3.81553
H          1.20061        3.08978        3.77274
H          3.39153        3.52615        3.85523
H          4.90371        3.45191        2.92357
H          3.53985        4.43475        2.34498
H          3.86495        0.47948        1.05915
H          5.23864        1.47896        1.80271
