32
2,3,3-TRIMETHYLHEPTANE.gamout	Energy:    -393.7436233
C         -0.25817       -0.03565        0.44919
C          0.62902        1.20316        0.31373
C          2.11599        0.87256        0.12902
C          2.98439        2.12773       -0.03031
C          4.53498        1.99346       -0.03581
C          5.11284        1.11681       -1.21102
C          5.10086        3.42482       -0.18645
C          5.02256        1.46121        1.32723
C          4.48536        1.43089       -2.57925
C          5.10980       -0.40540       -0.98054
H         -1.31798        0.23507        0.58455
H         -0.19079       -0.67722       -0.44597
H          0.04187       -0.64887        1.31595
H          0.50842        1.84258        1.20780
H          0.28325        1.81277       -0.54146
H          2.22036        0.21750       -0.75280
H          2.45856        0.27787        0.99421
H          2.73127        2.81818        0.79622
H          2.67114        2.65260       -0.94989
H          6.17899        1.40579       -1.27779
H          6.20230        3.42444       -0.13536
H          4.73060        4.07843        0.62043
H          4.81100        3.89057       -1.14176
H          4.60928        0.47317        1.57856
H          6.12208        1.37299        1.34752
H          4.73293        2.15314        2.13584
H          5.05025        0.93112       -3.38333
H          4.48048        2.50796       -2.80691
H          3.44538        1.07110       -2.64437
H          5.57758       -0.91235       -1.84106
H          5.68198       -0.69651       -0.08728
H          4.09425       -0.81649       -0.87600
