24
2,3-DIMETHYL-2-HEXENE.gamout	Energy:    -314.0205003
C          4.04172        3.16697        3.07579
C          2.98895        2.91588        2.00661
C          2.03001        1.96195        2.09865
C          3.11364        3.87221        0.83928
C          5.45522        2.63835        2.74310
C          1.88880        1.00868        3.26566
C          0.96037        1.72641        1.05576
C          5.56227        1.11439        2.67146
H          4.11781        4.25991        3.22524
H          3.73166        2.75391        4.04726
H          2.86076        4.90138        1.15553
H          2.47730        3.62229       -0.01819
H          4.15386        3.91220        0.47300
H          6.15267        3.01763        3.51117
H          5.79601        3.07387        1.78689
H          0.88901        1.10813        3.72688
H          1.96273       -0.03808        2.91871
H          2.63755        1.14641        4.05425
H         -0.04385        1.84976        1.50145
H          1.00222        0.68667        0.68290
H          1.01891        2.39462        0.18814
H          4.88608        0.69857        1.90690
H          5.29912        0.64651        3.63573
H          6.58778        0.79774        2.42030
