26
2,3-DIMETHYLHEXANE.gamout	Energy:    -315.2380662
C          1.65877        1.79568        0.10572
C          1.59675        0.31711       -0.31257
C          2.89560       -0.38333        0.12058
C          0.32310       -0.40557        0.21658
C         -0.97607        0.26771       -0.27723
C         -2.27610       -0.24458        0.35791
C         -3.51041        0.54034       -0.09344
C          0.32519       -1.90463       -0.12557
H          2.60037        2.25702       -0.23397
H          0.83715        2.39466       -0.31383
H          1.62045        1.89746        1.20489
H          1.55358        0.28133       -1.41943
H          2.99182       -1.39595       -0.29772
H          3.77566        0.19086       -0.21185
H          2.95304       -0.46733        1.22048
H          0.34132       -0.31400        1.32198
H         -0.92270        1.35138       -0.08383
H         -1.03911        0.16114       -1.37787
H         -2.42727       -1.31199        0.12312
H         -2.18668       -0.18655        1.45871
H         -3.42203        1.61052        0.16072
H         -3.65016        0.47406       -1.18596
H         -4.42910        0.16045        0.38252
H          1.18177       -2.43274        0.31786
H         -0.58180       -2.40416        0.24645
H          0.36441       -2.06061       -1.21859
