40
2,3-DIMETHYL-2,3-DIPHENYLBUTANE.gamout	Energy:    -698.1838587
C          4.47009        4.44261        1.93143
C          5.01794        4.71761        3.42705
C          5.56654        3.42071        4.06131
C          3.87088        5.16323        4.36082
C          6.12385        5.79661        3.40659
C          3.92127        5.73887        1.29711
C          5.61708        3.99763        0.99807
C          3.36515        3.36344        1.95184
C          7.48228        5.46040        3.26399
C          5.82583        7.16446        3.54116
C          3.66404        1.99581        1.81724
C          2.00665        3.69879        2.09447
C          8.48549        6.43199        3.24753
C          6.82313        8.14205        3.52513
C          2.66741        1.01758        1.83331
C          1.00413        2.72659        2.11092
C          8.16300        7.78295        3.37735
C          1.32737        1.37585        1.98117
H          6.34904        2.93363        3.46505
H          5.99612        3.64221        5.05001
H          4.75917        2.68961        4.20077
H          3.14073        4.35265        4.48581
H          4.27455        5.41085        5.35420
H          3.32310        6.04372        4.00060
H          3.49277        5.51729        0.30793
H          3.13781        6.22507        1.89266
H          4.72829        6.47042        1.15863
H          6.16576        3.11789        1.35869
H          5.21361        3.74894        0.00489
H          6.34624        4.80887        0.87277
H          7.77620        4.41632        3.16358
H          4.79265        7.48744        3.66431
H          4.69741        1.67349        1.69420
H          1.71204        4.74263        2.19486
H          9.52816        6.12455        3.13574
H          6.54520        9.19327        3.63395
H          2.94602       -0.03346        1.72444
H         -0.03869        3.03340        2.22280
H          8.94552        8.54525        3.36815
H          0.54529        0.61310        1.99033
