18
2,3-DIMETHYLBUTENE.gamout	Energy:    -235.5063333
C          3.16756        3.05091        0.49251
C          3.32086        4.57362        0.42039
C          3.90737        2.37999       -0.68326
C          1.72386        2.56364        0.59474
C          1.54736        1.10867        0.96152
C          0.66119        3.35414        0.38221
H          3.66753        2.71343        1.42245
H          2.81101        5.07555        1.25755
H          2.90812        4.97810       -0.51897
H          4.38633        4.85233        0.45656
H          3.43100        2.64333       -1.64263
H          3.91597        1.28230       -0.60129
H          4.95665        2.71574       -0.72471
H          1.94272        0.43899        0.17804
H          0.48817        0.85319        1.11348
H          2.09919        0.86466        1.88674
H         -0.35710        2.96281        0.46832
H          0.75810        4.40932        0.11816
