24
2,3-DIMETHYL-1-HEXENE.gamout	Energy:    -314.0137438
C          4.23887        0.70236        2.05763
C          4.42668        2.02980        1.31864
C          3.15850        2.71212        0.77982
C          2.16126        3.23951        1.83409
C          1.28026        4.35972        1.24109
C          1.26529        2.18847        2.49497
C          1.01536        2.39329        3.96868
C          0.68285        1.18760        1.81975
H          3.71717       -0.03824        1.42907
H          3.64745        0.81619        2.97917
H          5.21512        0.27459        2.34049
H          4.95710        2.74202        1.97837
H          5.10545        1.86078        0.46320
H          3.48474        3.57612        0.17412
H          2.64135        2.04120        0.07083
H          2.76460        3.70004        2.63958
H          0.55930        4.74237        1.98135
H          0.70369        3.98648        0.37867
H          1.89505        5.20967        0.90093
H          0.29137        1.67013        4.37300
H          0.63385        3.41054        4.16912
H          1.95544        2.30011        4.54236
H          0.01199        0.48226        2.31976
H          0.84794        1.03049        0.75036
