24
2,3-DIMETHYL-CIS-3-HEXENE.gamout	Energy:    -314.0164979
C          1.21796       -0.82952       -0.99321
C          2.22815       -0.00700       -0.17278
C          3.10056       -0.86192        0.75629
C          3.98009       -1.80652        0.37163
C          4.34181       -2.29726       -1.00659
C          4.05804       -3.79573       -1.19735
C          2.91607       -0.56139        2.22625
C          3.05204        0.94956       -1.05506
H          0.53193       -0.16261       -1.54281
H          0.60755       -1.47561       -0.34186
H          1.71026       -1.47825       -1.73394
H          1.62235        0.63763        0.48826
H          4.52262       -2.32359        1.17619
H          5.42316       -2.12262       -1.16777
H          3.82311       -1.72525       -1.78857
H          4.58163       -4.40149       -0.43855
H          4.39101       -4.14267       -2.18929
H          2.98084       -4.01086       -1.10414
H          3.13973        0.49860        2.44696
H          3.56036       -1.18506        2.86434
H          1.86700       -0.72583        2.53420
H          3.66943        0.40711       -1.78743
H          3.72957        1.56783       -0.44444
H          2.39010        1.63060       -1.61678
