32
2,3-DIMETHYLOCTANE.gamout	Energy:    -393.7476972
C          4.28838        2.20949        2.87943
C          4.83709        2.09374        4.32169
C          5.89198        0.97234        4.51147
C          3.68296        1.99991        5.33334
C          3.55191        0.98201        2.32901
C          6.43352        0.91375        5.94746
C          7.06635        1.10346        3.53022
C          3.02495        1.16003        0.89579
C          1.85315        2.13771        0.72414
C          0.54291        1.67914        1.36848
H          5.11092        2.46636        2.19072
H          3.61136        3.08158        2.86047
H          5.36203        3.04845        4.52123
H          5.39476        0.00433        4.30958
H          3.16833        1.02541        5.28287
H          4.02948        2.13468        6.36808
H          2.93230        2.78306        5.13879
H          4.22908        0.11093        2.33751
H          2.71602        0.71098        2.99678
H          6.87458        1.88102        6.24813
H          7.22346        0.15005        6.03338
H          5.65478        0.65943        6.68098
H          7.57091        2.07948        3.64328
H          7.81693        0.31827        3.71472
H          6.75173        1.01192        2.48018
H          3.85780        1.48890        0.24759
H          2.71755        0.17271        0.50578
H          2.13158        3.13146        1.11896
H          1.68547        2.28908       -0.35646
H         -0.27574        2.38274        1.14855
H          0.24021        0.68729        0.99114
H          0.62170        1.60433        2.46554
