29
2,3-DIMETHYL-3-ETHYLPENTANE.gamout	Energy:    -354.4820168
C          4.20247        4.11400        1.59621
C          2.90523        3.24388        1.82257
C          3.08512        1.93269        0.99510
C          1.64555        3.97480        1.25023
C          2.71766        2.90825        3.31483
C          4.07520        5.59777        1.98097
C          5.46365        3.54868        2.27394
C          2.08704        0.79846        1.24895
C          0.85038        4.91217        2.16827
H          4.38087        4.08738        0.50405
H          4.09735        1.53192        1.16640
H          3.05153        2.20745       -0.07516
H          0.93710        3.20951        0.89130
H          1.95387        4.52417        0.34257
H          3.50476        2.22898        3.67853
H          1.75150        2.41276        3.49711
H          2.74300        3.81104        3.94481
H          5.02755        6.11859        1.78750
H          3.85105        5.72631        3.05319
H          3.29957        6.12341        1.40603
H          6.35607        4.09561        1.92814
H          5.42157        3.66330        3.36984
H          5.63347        2.48322        2.05765
H          2.26932       -0.03342        0.54905
H          2.17562        0.38833        2.26755
H          1.04000        1.11394        1.10961
H          0.01555        5.36723        1.60939
H          0.40666        4.37446        3.02111
H          1.45312        5.73489        2.57883
