32
2,4,6-TRIMETHYLHEPTANE.gamout	Energy:    -393.7475555
C          0.69005        1.19937        1.88859
C          1.68622        1.57831        2.99249
C          2.93141        2.31648        2.44331
C          0.98123        2.42281        4.06233
C          4.16462        1.47746        2.03798
C          4.81431        0.71356        3.21110
C          3.90374        0.52014        0.86677
C          5.24996        1.52613        4.44486
C          6.26212        2.62452        4.10233
C          5.80954        0.59852        5.52911
H          0.29371        2.10405        1.39441
H         -0.16875        0.64432        2.30006
H          1.14863        0.57264        1.11067
H          2.02022        0.64547        3.48302
H          2.62861        2.92811        1.57407
H          3.26370        3.04462        3.20097
H          0.65047        3.39170        3.64768
H          1.64769        2.63802        4.91321
H          0.08788        1.91173        4.45803
H          4.90603        2.21208        1.67525
H          4.12432       -0.08227        3.54594
H          5.70150        0.18154        2.81871
H          3.45311        1.04606        0.00971
H          3.23072       -0.30702        1.14706
H          4.84596        0.06686        0.51764
H          4.35466        2.01686        4.86947
H          5.85176        3.36204        3.39570
H          6.57104        3.17323        5.00670
H          7.17390        2.19835        3.64709
H          6.72108        0.07860        5.18434
H          5.07852       -0.17453        5.81801
H          6.07319        1.16285        6.43795
