21
2,4,6-TRINITROTOLUENE.gamout	Energy:    -883.9574217
O          6.67884        4.11432       -0.75769
N          7.15442        3.02446       -1.02037
O          8.22300        2.83157       -1.57422
C          6.33770        1.83413       -0.66849
C          6.94491        0.61420       -0.28963
C          4.95977        2.02238       -0.75273
C          8.43457        0.45835       -0.12449
C          6.02905       -0.43111       -0.02759
C          4.12810        0.94582       -0.47432
N          6.49907       -1.79154        0.34014
C          4.64493       -0.28692       -0.09860
N          2.65995        1.11813       -0.57429
O          5.78916       -2.43334        1.09318
O          7.53959       -2.18240       -0.16011
O          2.25309        2.21569       -0.91019
O          1.96972        0.14915       -0.31414
H          4.54628        2.99188       -1.02674
H          8.90521        1.41042        0.14361
H          8.67327       -0.30176        0.62726
H          8.88701        0.12886       -1.07262
H          3.98571       -1.12102        0.13751
