24
2,4-DIMETHYL-3-PENTANOL.gamout	Energy:    -351.1128676
C         -1.64402        1.63415       -0.21735
C         -1.33562        0.20026        0.23326
C         -2.50697       -0.73457       -0.10076
C         -0.01837       -0.35339       -0.36275
C          1.24734        0.51422       -0.14343
C          1.58190        0.73093        1.33930
C          2.44177       -0.09366       -0.89126
O          0.20095       -1.69447        0.06630
H         -0.88541        2.35856        0.11641
H         -1.70804        1.69714       -1.31789
H         -2.61394        1.96634        0.18695
H         -1.21751        0.20805        1.33511
H         -2.69693       -0.74898       -1.18834
H         -2.29428       -1.76668        0.21111
H         -3.43361       -0.40204        0.39496
H         -0.16375       -0.43958       -1.45559
H          1.04370        1.50222       -0.59252
H          0.76627        1.22604        1.88998
H          1.80152       -0.22522        1.84681
H          2.47996        1.35984        1.44889
H          2.23904       -0.17352       -1.97213
H          3.34748        0.52151       -0.76337
H          2.65656       -1.10811       -0.52085
H          0.27820       -1.69200        1.03047
