19
2,4-DIMETHYL-1,3-PENTADIENE.gamout	Energy:    -273.5466955
C          3.08953        1.31633        0.68689
C          4.43097        1.91811        0.84645
C          1.87455        1.86455        0.90942
C          5.46707        1.01452        1.47849
C          4.74672        3.15786        0.42726
C          0.61809        1.06217        0.67516
C          1.64215        3.26439        1.41943
H          3.10419        0.25909        0.38657
H          5.17402        0.73238        2.50496
H          5.56583        0.07276        0.90964
H          6.45671        1.49379        1.51982
H          5.75484        3.56299        0.56097
H          4.02198        3.79695       -0.08276
H         -0.03937        1.56487       -0.05785
H          0.83342        0.05008        0.30020
H          0.02941        0.96855        1.60593
H          2.55598        3.72492        1.81854
H          1.25719        3.92038        0.61688
H          0.87307        3.26033        2.21194
