13
2,4-DICHLOROPHENOL.gamout	Energy:   -1225.8681291
Cl         2.00996       -1.93908       -0.00010
Cl        -3.25300       -0.58471       -0.00010
O          2.45458        0.95565        0.00010
C          1.13933        0.64357        0.00009
C          0.76830       -0.71650       -0.00008
C          0.12212        1.60844        0.00010
C         -0.57552       -1.09228       -0.00010
C         -1.22603        1.24467        0.00008
C         -1.56921       -0.10868       -0.00008
H          0.39462        2.66884        0.00020
H         -0.83887       -2.15005       -0.00019
H         -2.00577        2.00781        0.00009
H          2.55901        1.91659        0.00021
