24
2,4-DIMETHYL-CIS-3-HEXENE.gamout	Energy:    -314.0218347
C          0.36966       19.79251       -0.06501
C          0.96132       20.89189        0.83307
C          0.96448       22.27037        0.19890
C          2.04967       22.85225       -0.34538
C         -0.36817       22.98377        0.19919
C          3.46100       22.32703       -0.46041
C          3.86609       22.19362       -1.94044
C          4.44295       23.24259        0.29337
H          0.35898       18.82085        0.45566
H         -0.66743       20.01888       -0.36200
H          0.95902       19.67440       -0.98881
H          1.98153       20.60085        1.12797
H          0.37443       20.93988        1.76870
H          1.91635       23.85534       -0.77672
H         -0.72773       23.15278        1.23076
H         -0.30897       23.95940       -0.30609
H         -1.14871       22.38838       -0.30724
H          3.52031       21.32345       -0.00674
H          4.89807       21.81699       -2.03979
H          3.19738       21.50361       -2.47940
H          3.81810       23.17114       -2.45131
H          5.47908       22.87452        0.20613
H          4.19118       23.30464        1.36421
H          4.41810       24.26810       -0.11453
