26
2,4-DIMETHYLHEXANE.gamout	Energy:    -315.2365810
C          4.56207        2.75004        2.18990
C          3.33880        1.92102        1.73190
C          2.06113        2.78887        1.80447
C          3.15017        0.60702        2.50603
C          5.97460        2.28969        1.75673
C          0.82831        2.20528        1.10961
C          6.55393        1.13467        2.58868
C          6.94734        3.48027        1.78982
H          4.42151        3.76799        1.78642
H          4.53829        2.86681        3.29128
H          3.49519        1.66715        0.66433
H          1.82830        2.99144        2.86725
H          2.28239        3.77331        1.35511
H          3.02022        0.80533        3.58450
H          2.26021        0.05917        2.15903
H          4.00560       -0.07294        2.39342
H          5.90285        1.95108        0.70495
H          0.48321        1.26869        1.57617
H         -0.01546        2.91368        1.14449
H          1.03443        1.98955        0.04703
H          7.57343        0.88385        2.25127
H          6.61794        1.41522        3.65469
H          5.95465        0.21644        2.52183
H          7.03829        3.88624        2.81278
H          7.95679        3.18235        1.46160
H          6.60888        4.30069        1.13571
