32
2,4-DIMETHYL-4-ETHYLHEXANE.gamout	Energy:    -393.7390082
C         -1.61744        0.43342       -1.66526
C         -0.51164        1.14176       -0.87531
C          0.84904        0.42557       -0.65468
C          1.56618        0.12230       -2.00755
C          1.75206        1.42906        0.09009
C          0.68261       -0.88257        0.16555
C          1.18908       -1.13792       -2.79740
C          0.17205       -0.78128        1.62912
C         -0.83125       -1.90121        1.94070
C          1.31480       -0.81165        2.65212
H         -2.54531        1.02683       -1.62618
H         -1.36107        0.30902       -2.72834
H         -1.85612       -0.56399       -1.26125
H         -0.91388        1.40727        0.11736
H         -0.29883        2.10764       -1.36812
H          2.64965        0.06553       -1.80059
H          1.43859        1.00766       -2.65650
H          2.72602        0.98155        0.34503
H          1.29134        1.79250        1.02181
H          1.95089        2.31186       -0.54039
H          0.00065       -1.54288       -0.39127
H          1.65521       -1.40737        0.16866
H          1.76609       -1.17691       -3.73579
H          0.12397       -1.17500       -3.06864
H          1.42013       -2.06101       -2.24290
H         -0.36407        0.17701        1.75492
H         -1.19657       -1.83746        2.97895
H         -1.70769       -1.85689        1.27412
H         -0.36810       -2.89590        1.81324
H          0.93216       -0.70026        3.68001
H          2.04523       -0.00785        2.47959
H          1.85977       -1.77136        2.60528
