24
2,4-DIMETHYL-2-PENTANOL.gamout	Energy:    -351.1153875
C          2.25804       -0.86745        0.73335
C          1.15801       -0.10548       -0.02600
C          1.36206       -0.25933       -1.54158
C         -0.22188       -0.62340        0.43611
C         -1.50116       -0.06917       -0.22661
C         -2.70396       -0.94001        0.16806
C         -1.77610        1.40545        0.10184
O          1.22747        1.27892        0.33234
H          3.25400       -0.47004        0.47079
H          2.12158       -0.75171        1.81982
H          2.25506       -1.94274        0.49281
H          1.25517       -1.30852       -1.86185
H          0.63859        0.35026       -2.10271
H          2.37482        0.07350       -1.82870
H         -0.21060       -1.71852        0.29560
H         -0.28519       -0.45592        1.52668
H         -1.38473       -0.15513       -1.32281
H         -3.62752       -0.58940       -0.32141
H         -2.55523       -1.99560       -0.11499
H         -2.87471       -0.90850        1.25850
H         -0.94953        2.05357       -0.21622
H         -2.70560        1.74653       -0.38494
H         -1.89962        1.54455        1.19027
H          2.08918        1.61538        0.05090
