23
2,4-DIMETHYLQUINOLINE.gamout	Energy:    -479.9150204
C         -3.90995       -2.15443        1.74887
C         -5.35349       -1.88900        2.08975
C         -3.48063       -3.43948        1.27460
C         -2.94991       -1.17312        1.88051
C         -2.08829       -3.60636        0.97525
C         -4.35708       -4.54420        1.08846
C         -1.58298       -1.43201        1.55701
N         -1.17405       -2.60481        1.12236
C         -1.62921       -4.86724        0.50315
C         -3.88108       -5.75679        0.62798
C         -0.55665       -0.33687        1.71219
C         -2.50529       -5.91972        0.33284
H         -5.49468       -0.85430        2.43423
H         -6.00979       -2.04857        1.21759
H         -5.70868       -2.56374        2.88683
H         -3.23144       -0.17818        2.23812
H         -5.42002       -4.43182        1.31259
H         -0.56335       -4.96134        0.28418
H         -4.56822       -6.59601        0.49012
H         -0.80758        0.53445        1.08328
H         -0.51001        0.02011        2.75536
H          0.43221       -0.71469        1.42024
H         -2.14049       -6.88424       -0.03104
