24
2,5-DIMETHYL-1-HEXENE.gamout	Energy:    -314.0195563
C          3.14972        1.76654        3.21244
C          1.87201        1.18954        3.85019
C          3.60156        1.07874        1.90843
C          1.49321        1.83304        5.16974
C          2.58333        1.23892        0.77089
C          4.97878        1.60133        1.47862
C          2.39519        1.55277        6.34710
C          0.40539        2.60868        5.28482
H          3.97844        1.70132        3.93896
H          2.99656        2.84480        3.01887
H          1.02842        1.29563        3.15017
H          2.01731        0.10307        4.00813
H          3.70361       -0.00372        2.12052
H          2.41862        2.30583        0.53775
H          2.93759        0.74976       -0.15141
H          1.60564        0.79731        1.02034
H          4.93913        2.68264        1.25843
H          5.73423        1.45135        2.26776
H          5.33886        1.09174        0.56954
H          2.47015        0.46609        6.53310
H          2.02899        2.03269        7.26686
H          3.42399        1.91021        6.16718
H         -0.25258        2.80211        4.43171
H          0.13332        3.07777        6.23547
