25
2,6-DIMETHYL-1,5-HEPTADIENE.gamout	Energy:    -352.0531463
C          1.52005        1.17584        3.92859
C          1.87142        1.47823        2.67027
C          3.23460        2.00762        2.27656
C          0.90821        1.30859        1.52010
C          4.25873        2.20898        3.39363
C          5.61142        2.75981        2.89688
C          6.38035        1.84926        1.95945
C          6.63231        2.19902        0.68923
C          6.86436        0.54064        2.53425
H          2.20161        1.29307        4.77408
H          0.52026        0.79439        4.15687
H          3.08682        2.96901        1.74488
H          3.65662        1.33266        1.50752
H          0.73607        2.26979        1.00301
H          1.31575        0.61565        0.76215
H         -0.06572        0.91949        1.85227
H          3.85377        2.91323        4.14041
H          4.41825        1.25640        3.92811
H          6.24247        2.96440        3.78236
H          5.44526        3.73101        2.40038
H          7.19777        1.54790        0.01517
H          6.28490        3.15316        0.28119
H          7.49670        0.71230        3.42379
H          6.02352       -0.09296        2.86624
H          7.45058       -0.03518        1.80265
