20
2,6-DIMETHYLANILINE.gamout	Energy:    -365.7362412
C          7.27072        3.00892       -0.96733
C          6.35779        1.84382       -0.67526
C          6.87153        0.58499       -0.34205
C          4.95219        2.01788       -0.72801
C          6.03089       -0.49370       -0.05906
C          4.64756       -0.30748       -0.10683
C          4.08839        0.93302       -0.43519
C          2.59328        1.13123       -0.47299
N          4.41749        3.27386       -1.01360
H          8.32727        2.72756       -0.85073
H          7.14531        3.38625       -2.00041
H          7.07262        3.86090       -0.29208
H          7.95740        0.45456       -0.30262
H          6.44946       -1.46943        0.19931
H          3.97752       -1.14321        0.11763
H          2.06195        0.21213       -0.18639
H          2.27047        1.93493        0.21325
H          2.23710        1.41296       -1.48245
H          5.01822        3.91352       -1.51988
H          3.46486        3.28823       -1.35796
