22
2,6-OCTADIENE.gamout	Energy:    -312.7992533
C          4.46045        1.51056        1.99595
C          3.10792        2.01385        1.57441
C          5.46552        1.40554        0.82476
C          1.95673        1.33814        1.68426
C          0.60727        1.83826        1.25806
C          6.81846        0.90430        1.24745
C          7.96812        1.58359        1.14398
C          9.31724        1.08565        1.57389
H          4.35868        0.52488        2.48324
H          4.89130        2.19037        2.75502
H          3.08638        3.01755        1.12497
H          5.56588        2.39085        0.33644
H          5.03590        0.72425        0.06636
H          1.98228        0.33428        2.13168
H          0.66600        2.84639        0.81811
H          0.14654        1.16659        0.51146
H         -0.09350        1.87897        2.11144
H          6.84156       -0.10135        1.69244
H          7.94131        2.58951        0.70125
H         10.02613        1.06357        0.72670
H          9.76632        1.74813        2.33577
H          9.26116        0.07032        1.99733
