24
2,7-DIMETHYLNAPHTHALENE.gamout	Energy:    -463.8889069
C          1.87783        3.30758        0.85651
C          0.57848        4.07554        0.85110
C          3.10401        3.94845        0.85525
C          1.85636        1.88147        0.86285
C          4.33136        3.22669        0.86014
C          3.02333        1.14932        0.86773
C          4.29163        1.79439        0.86652
C          5.59696        3.87939        0.85884
C          5.52216        1.08013        0.87127
C          6.78575        3.17148        0.86358
C          6.72786        1.74637        0.86985
C          8.12677        3.86400        0.86231
H         -0.02954        3.82583       -0.03549
H         -0.03282        3.83326        1.73752
H          0.75040        5.16230        0.84697
H          3.14338        5.04244        0.85041
H          0.89113        1.36574        0.86391
H          2.98809        0.05572        0.87254
H          5.61676        4.97394        0.85402
H          5.49761       -0.01381        0.87608
H          7.66250        1.17691        0.87355
H          8.71919        3.58773        1.75152
H          8.72260        3.57798       -0.02151
H          8.01819        4.95892        0.85613
