12
2-(DIFLUOROMETHOXY)-1,1,1-TRIFLUOROETHANE.gamout	Energy:    -689.7612288
C         -1.97751        3.13573        0.21456
C         -0.47205        2.97779        0.10947
C          1.16370        1.30146        0.35649
O         -0.15201        1.62677        0.40026
H         -0.00178        3.66598        0.82955
H         -0.16345        3.25098       -0.91203
F         -2.62379        2.34982       -0.65427
F         -2.29784        4.41167       -0.05913
F         -2.42315        2.84873        1.44302
F          1.88352        2.04415        1.23505
F          1.69287        1.54707       -0.86882
H          1.26635        0.23263        0.59961
