17
2-AMINO-2-METHYL-1-PROPANOL.gamout	Energy:    -288.6197813
O          1.96803        0.36063       -0.25690
N         -1.37436       -0.21243        1.25670
C         -0.37513       -0.10336        0.18700
C          1.00773        0.25048        0.77469
C         -0.82708        0.99964       -0.78059
C         -0.29977       -1.45387       -0.53877
H          1.28684       -0.53717        1.50745
H          0.91174        1.20142        1.34218
H         -0.11090        1.10963       -1.60746
H         -0.89374        1.97216       -0.26223
H         -1.82202        0.76228       -1.18669
H         -1.28718       -1.72306       -0.94364
H          0.43386       -1.41749       -1.35677
H          0.01149       -2.25332        0.15651
H         -1.10179       -0.92877        1.93217
H         -1.44304        0.66632        1.77307
H          2.82059        0.58942        0.13285
