12
2-BUTYNE-1,4-DIOL.gamout	Energy:    -305.9866181
C          4.03971        1.08987        1.04798
C          2.82906        1.14740        1.05566
C          1.36735        1.19105        1.06898
C          5.50116        1.03749        1.05503
O          0.90055        2.45170        0.62740
O          5.97969        0.28153       -0.04107
H          0.99512        0.36668        0.42387
H          1.02008        0.96604        2.10033
H          5.88119        2.08117        1.03095
H          5.83021        0.60446        2.02423
H         -0.06533        2.42374        0.63614
H          6.94523        0.29225       -0.00315
