30
2-BUTYLNAPHTHALENE.gamout	Energy:    -542.3974599
C          8.51284        3.60934        0.83957
C          8.25244        2.36019       -0.02314
C          6.96606        1.64353        0.32256
C          9.82328        4.32588        0.49890
C          5.83148        1.76353       -0.45983
C          6.89585        0.83918        1.49869
C         10.07799        5.56544        1.35871
C          4.61003        1.11426       -0.12233
C          5.73287        0.19547        1.85857
C          4.55619        0.31103        1.06604
C          3.43818        1.23021       -0.92255
C          3.33732       -0.34053        1.40421
C          2.27067        0.58615       -0.56742
C          2.21895       -0.20715        0.60761
H          7.66509        4.30807        0.72046
H          8.52023        3.32062        1.90658
H          9.10259        1.66390        0.09408
H          8.23539        2.65397       -1.08658
H         10.66502        3.61829        0.61379
H          9.81294        4.61319       -0.56875
H          5.86308        2.37150       -1.36973
H          7.78951        0.72988        2.12072
H         11.02588        6.05877        1.08889
H          9.27101        6.30819        1.23960
H         10.13108        5.30691        2.43003
H          5.70151       -0.42069        2.76199
H          3.47756        1.84170       -1.82880
H          3.30140       -0.95204        2.31057
H          1.37870        0.68487       -1.19181
H          1.28838       -0.71281        0.87874
