22
2-BUTOXYETHANOL.gamout	Energy:    -386.9702781
C         -4.60797        0.37443        0.40823
C         -3.35209       -0.33431       -0.10292
H         -4.64946        1.41859        0.05460
H         -4.63323        0.39905        1.51076
H         -5.52520       -0.13047        0.06461
C         -2.05176        0.33392        0.35207
H         -3.37669       -0.37361       -1.20756
H         -3.36073       -1.38645        0.23718
C         -0.80181       -0.36937       -0.15722
H         -2.00647        0.36750        1.45508
H         -2.02260        1.38344        0.00873
O          0.33734        0.31283        0.31206
H         -0.80427       -0.40155       -1.26876
H         -0.78783       -1.42699        0.18605
C          1.55884       -0.24188       -0.10174
C          2.68686        0.59218        0.48153
H          1.64671       -0.25430       -1.20852
H          1.66710       -1.29305        0.23993
O          3.90412        0.02032        0.05288
H          2.56572        1.63956        0.13733
H          2.58711        0.59940        1.58598
H          4.63051        0.54047        0.41564
