14
2-CHLOROBUTANE.gamout	Energy:    -617.6263074
C          1.71925        1.81955        1.82830
C          2.02137        1.66340        3.31763
C          0.89907        1.00033        4.10222
Cl         2.37027        3.30485        4.06497
C          2.86561        2.38247        0.98991
H          1.44222        0.81546        1.45589
H          0.81777        2.44781        1.71914
H          2.96083        1.10455        3.45216
H          0.72145       -0.01766        3.71551
H         -0.03688        1.57381        4.00921
H          1.15181        0.92621        5.17003
H          3.75593        1.73285        1.03931
H          3.15794        3.38174        1.34635
H          2.57340        2.46817       -0.06865
