17
2-CHLORO-2-METHYLBUTANE.gamout	Energy:    -656.8835111
C          0.51137        1.05871        0.02251
C          2.04746        0.99076       -0.04666
C          2.52774       -0.45996       -0.00346
C          2.63384        1.73111       -1.24813
Cl         2.72166        1.81311        1.47910
C         -0.11802        2.45137        0.00406
H          0.19199        0.51951        0.92984
H          0.13340        0.47046       -0.83510
H          3.62650       -0.50962        0.01501
H          2.14326       -0.98041        0.88653
H          2.17240       -0.99828       -0.89909
H          3.72999        1.63859       -1.26369
H          2.38288        2.80072       -1.23244
H          2.23728        1.29561       -2.18184
H         -1.21216        2.37941        0.11020
H          0.08479        2.98575       -0.93736
H          0.26452        3.06450        0.83423
