39
2-CYCLOPENTYLOCTANE.gamout	Energy:    -510.3086640
C          4.15829       -0.56675       -1.99096
C          2.64615       -0.79219       -1.92678
C          1.99423       -0.22314       -0.66146
C          0.48071       -0.45525       -0.57436
C         -0.17258        0.20078        0.65199
C         -1.71482        0.00535        0.78616
C         -2.39454        1.34458        1.18088
C         -3.85363        1.53884        0.75346
H          4.67253       -1.04246       -1.13838
H          4.58963       -0.98535       -2.91417
H          4.40498        0.50838       -1.96506
H          2.16908       -0.33796       -2.81495
H          2.43340       -1.87512       -1.99508
H          2.48406       -0.66055        0.22929
H          2.19917        0.86346       -0.60914
H          0.00131       -0.06032       -1.49015
H          0.27930       -1.54049       -0.57902
H          0.33241       -0.15463        1.56945
H          0.04578        1.28122        0.60715
H         -2.29931        1.49769        2.27308
H         -1.81192        2.16167        0.72296
H         -3.95998        1.45546       -0.34192
H         -4.54069        0.81196        1.20685
H         -4.20398        2.54378        1.03932
C         -2.05394       -1.15993        1.75039
H         -2.10130       -0.26773       -0.21621
H         -1.65115       -0.87903        2.74512
C         -1.45675       -2.53275        1.38187
C         -3.54398       -1.52062        1.93921
H         -4.03233       -1.56630        0.94989
H         -4.09389       -0.78127        2.53803
C         -3.55706       -2.91870        2.60289
H         -0.36178       -2.57471        1.47673
H         -1.70186       -2.75989        0.32837
C         -2.16060       -3.53385        2.31408
H         -4.37432       -3.53965        2.20493
H         -3.73090       -2.83865        3.68835
H         -1.59022       -3.64807        3.25076
H         -2.22625       -4.53549        1.86317
