16
2-ETHYL-1,3-BUTADIENE.gamout	Energy:    -234.2857425
C          4.21035        1.64354        2.00365
C          3.20787        2.08192        0.92273
C          1.78017        1.65450        1.20284
C          1.23072        0.60139        0.56469
C          0.98163        2.38823        2.19911
C          1.34207        3.49656        2.86676
H          4.24101        0.54505        2.08577
H          3.94383        2.04164        2.99489
H          5.22685        1.99368        1.76072
H          3.51853        1.66012       -0.04691
H          3.24786        3.17944        0.80876
H          0.20936        0.27274        0.77986
H          1.78479        0.03822       -0.19180
H         -0.01555        1.97138        2.38721
H          0.66022        3.97066        3.57770
H          2.31591        3.97440        2.73023
