27
2-ETHYL-6-METHYLNAPHTHALENE.gamout	Energy:    -503.1445336
C          1.32850        1.24177        0.05847
C          2.49354        0.54489        0.32803
C          2.40175       -0.85796        0.56553
C          1.19057       -1.51471        0.52870
C         -0.01572       -0.81224        0.25038
C         -1.28488       -1.45552        0.20553
C         -2.44857       -0.75801       -0.06402
C         -2.35676        0.64591       -0.29999
C         -1.14641        1.30197       -0.26340
C          0.06075        0.59836        0.01111
C         -3.79468       -1.43760       -0.11402
C          3.84241        1.23205        0.34463
C          4.67250        0.98861       -0.92609
H          1.37039        2.32082       -0.12243
H          3.31473       -1.41940        0.78717
H          1.14244       -2.59094        0.71927
H         -1.32756       -2.53350        0.39094
H         -3.27137        1.20778       -0.51350
H         -1.09896        2.37947       -0.44687
H         -4.26609       -1.31578       -1.10448
H         -4.48953       -1.00436        0.62603
H         -3.71454       -2.51575        0.09055
H          4.41646        0.88384        1.22173
H          3.69488        2.31649        0.47968
H          4.86329       -0.08581       -1.08197
H          5.64781        1.49856       -0.86353
H          4.14797        1.36342       -1.81994
