21
2-ETHYL-1-BUTANOL.gamout	Energy:    -311.8510148
C         18.01218       -0.05592        0.00247
C         19.18748        0.94256        0.03159
C         19.19213        1.81053        1.30577
C         20.51663        0.20124       -0.13843
C         16.63836        0.57163       -0.24263
C         20.07782        3.05869        1.24532
O         20.54283       -0.41323       -1.41332
H         18.21777       -0.79195       -0.79076
H         18.00227       -0.61784        0.95607
H         19.08763        1.60943       -0.84662
H         18.15832        2.12927        1.51908
H         19.49193        1.18072        2.16496
H         21.36073        0.90995       -0.02615
H         20.61078       -0.55017        0.67555
H         15.85001       -0.19818       -0.27037
H         16.35765        1.29427        0.54162
H         16.61199        1.10606       -1.20750
H         20.00044        3.64773        2.17389
H         21.14325        2.81386        1.10547
H         19.78022        3.71684        0.41139
H         21.35411       -0.93004       -1.49011
