21
2-HEXANOL.gamout	Energy:    -311.8592454
C          1.46952        3.77965        1.97400
C          2.19426        2.44576        1.78702
C          3.72086        2.56555        1.82539
C          4.44507        1.23005        1.64036
C          5.96958        1.34005        1.65449
C          6.65679        0.00461        1.36645
O          6.34344        1.83697        2.93460
H          1.72674        4.24295        2.94177
H          1.74371        4.49903        1.18343
H          0.37483        3.65446        1.94470
H          1.88816        1.99171        0.82567
H          1.86661        1.73531        2.56845
H          4.05315        3.26984        1.03877
H          4.03857        3.01062        2.78379
H          4.14767        0.53021        2.44302
H          4.13829        0.76311        0.68706
H          6.26766        2.06667        0.86706
H          6.39468       -0.73620        2.13946
H          6.36369       -0.39758        0.38271
H          7.75486        0.11834        1.36296
H          7.30223        1.95152        2.94629
