22
2-HEPTANONE.gamout	Energy:    -349.9183915
O         -2.13276        4.36837       -2.02087
C          1.11779        1.51219       -0.08691
C         -0.25561        1.85405       -0.67408
C          1.54668        0.06195       -0.33399
C         -0.66552        3.32087       -0.44853
C          2.91546       -0.28083        0.25696
C         -2.02426        3.65368       -1.04875
C         -3.25890        3.04031       -0.39596
H          1.87562        2.19605       -0.51251
H          1.11046        1.71283        1.00119
H         -0.25115        1.64686       -1.75940
H         -1.01451        1.17935       -0.23769
H          0.78224       -0.61874        0.08432
H          1.55542       -0.13195       -1.42237
H          0.06935        3.99811       -0.91083
H         -0.69262        3.53039        0.63710
H          2.92831       -0.13815        1.35092
H          3.19054       -1.32860        0.05511
H          3.70730        0.35889       -0.16837
H         -3.96956        3.84723       -0.15691
H         -3.75875        2.37995       -1.12331
H         -3.03820        2.46651        0.51554
