11
2-IODOPROPANE.gamout	Energy:    -416.0635461
I         -0.66998       -0.00003        0.00970
C          1.51454        0.00013       -0.40060
C          2.13670        1.27423        0.14194
C          2.13629       -1.27410        0.14197
H          1.51962        0.00017       -1.49875
H          2.06752        1.32201        1.24019
H          3.20705        1.29566       -0.13263
H          1.66066        2.17271       -0.27526
H          1.66009       -2.17246       -0.27531
H          3.20666       -1.29574       -0.13243
H          2.06693       -1.32190        1.24023
