25
2-ISOPROPYL-4-METHYLPHENOL.gamout	Energy:    -464.0937520
O          1.01367       -2.35470       -0.02343
C          2.01699        0.30146        0.01352
C          0.52653       -0.02060       -0.00143
C          2.43102        1.04314        1.29652
C          2.45018        1.07305       -1.24539
C         -0.44435        0.98832        0.00231
C          0.07817       -1.35918       -0.01968
C         -1.82560        0.72924       -0.01108
C         -1.29239       -1.64346       -0.03301
C         -2.23261       -0.61010       -0.02870
C         -2.82405        1.86261       -0.00652
H          2.54828       -0.66193        0.00590
H          1.94823        2.03248        1.36975
H          3.52201        1.20429        1.31926
H          2.15442        0.47013        2.19597
H          2.18687        0.52174       -2.16219
H          3.54141        1.23421       -1.24805
H          1.96879        2.06419       -1.30242
H         -0.10936        2.03061        0.01649
H         -1.62601       -2.68681       -0.04708
H         -3.29854       -0.85551       -0.03929
H         -2.69703        2.51910       -0.88469
H         -3.85920        1.48839       -0.01834
H         -2.71055        2.50032        0.88722
H          0.56509       -3.20995       -0.03612
