27
2-METHYL-1-HEPTANOL.gamout	Energy:    -390.3650401
O          2.83602        1.32336        5.40827
C          1.08449        1.18148        2.06359
C          2.21296        1.06541        3.10499
C         -0.15850        0.31408        2.29739
C         -1.19504        0.42903        1.17473
C          1.75906        1.48814        4.50422
C          3.44698        1.86560        2.66711
C         -2.44181       -0.43724        1.38284
C         -3.46942       -0.31214        0.25602
H          1.51048        0.91934        1.07800
H          0.78154        2.24313        1.97714
H          2.50691        0.00084        3.18008
H          0.15002       -0.74329        2.40213
H         -0.64201        0.58106        3.25400
H         -0.72169        0.15989        0.21134
H         -1.50067        1.48741        1.06882
H          1.41724        2.54609        4.46780
H          0.88746        0.87980        4.81664
H          4.26452        1.75388        3.39307
H          3.80485        1.53029        1.68004
H          3.20965        2.94154        2.58843
H         -2.13500       -1.49443        1.48752
H         -2.91512       -0.16821        2.34542
H         -3.03649       -0.60990       -0.71419
H         -4.35047       -0.94862        0.43762
H         -3.82398        0.72751        0.15212
H          2.55522        1.63292        6.27764
