24
2-METHYL-2-HEXANOL.gamout	Energy:    -351.1173957
C          2.57236       -1.02273       -0.07225
C          1.43788        0.01498       -0.05556
C          1.64360        1.04423       -1.17785
C          0.07806       -0.70498       -0.16485
C         -1.16244        0.18445       -0.04299
C         -2.47120       -0.61235        0.00665
C         -3.71350        0.26670        0.16248
O          1.42102        0.67659        1.21304
H          3.55283       -0.53061        0.05139
H          2.44281       -1.73883        0.75375
H          2.59770       -1.58283       -1.02110
H          1.58838        0.57399       -2.17315
H          0.88737        1.84152       -1.12635
H          2.63761        1.51663       -1.08937
H          0.05548       -1.26510       -1.11664
H          0.04928       -1.46060        0.64035
H         -1.06655        0.79409        0.87117
H         -1.20873        0.89720       -0.88636
H         -2.56460       -1.22666       -0.90848
H         -2.42279       -1.33216        0.84467
H         -3.66415        0.86491        1.08819
H         -3.81432        0.97268       -0.67961
H         -4.63570       -0.33567        0.20370
H          2.25368        1.15768        1.31069
