16
2-METHYL-CIS-1,3-PENTADIENE.gamout	Energy:    -234.2901691
C          1.13222        3.71831        0.72805
C          2.12502        2.83565        0.93820
C          2.10947        1.72630        1.90090
C          3.15967        0.88417        2.05819
C          0.86261        1.54056        2.73442
C          4.48036        0.87887        1.34761
H          0.18799        3.68534        1.27821
H          1.23859        4.51331       -0.01482
H          3.03403        2.94799        0.33931
H          3.04389        0.08942        2.80652
H          0.96316        0.68242        3.41482
H          0.64965        2.43565        3.34440
H         -0.02426        1.37023        2.09969
H          4.58277        1.67422        0.59670
H          5.31174        0.98902        2.06712
H          4.64256       -0.08688        0.83558
