13
2-METHOXYETHANOL.gamout	Energy:    -269.1961341
O         -1.73443       -2.14121        0.83089
O          1.13607       -0.17774       -0.05324
C         -1.03025       -1.07650        0.24513
C          0.44837       -1.25688        0.54310
C         -3.11986       -2.08626        0.62802
H         -1.18213       -1.04540       -0.85468
H         -1.36750       -0.09693        0.64531
H          0.77208       -2.23897        0.14258
H          0.58556       -1.28984        1.64309
H         -3.57025       -2.95933        1.12367
H         -3.38556       -2.11591       -0.44935
H         -3.56765       -1.16616        1.05801
H          2.07791       -0.27842        0.12746
