24
2-METHYL-TRANS-3-HEPTENE.gamout	Energy:    -314.0214489
C          1.48433        1.62259        4.48680
C          1.44198        2.43218        3.42110
C          2.04389        1.97646        5.84370
C          0.87364        2.08742        2.07152
C          3.20919        1.04516        6.21930
C          0.94249        1.93977        6.91841
C          1.88224        2.20273        0.91170
C          3.02925        1.19339        0.96985
H          1.07271        0.60603        4.39314
H          1.85519        3.44713        3.52136
H          2.43400        3.00937        5.79018
H          0.45069        1.06703        2.09666
H          0.02887        2.76917        1.85647
H          4.02192        1.09848        5.47744
H          2.87375       -0.00538        6.27187
H          3.62962        1.30824        7.20460
H          0.50398        0.92989        7.00044
H          1.34429        2.20896        7.90972
H          0.12640        2.63944        6.67833
H          1.33466        2.08127       -0.03972
H          2.29349        3.22916        0.89471
H          3.72149        1.32632        0.12250
H          2.65186        0.15689        0.93141
H          3.61337        1.29333        1.89936
