16
2-METHYL-1,4-PENTADIENE.gamout	Energy:    -234.2810924
C          3.28747        2.08465        1.77545
C          1.81020        1.81340        2.01474
C          4.18990        1.02175        2.35482
C          1.34287        1.89063        3.44559
C          0.98166        1.51769        1.00340
C          5.12659        1.22004        3.28683
H          3.46390        2.15297        0.68760
H          3.56030        3.06364        2.21095
H          4.03426        0.00870        1.96034
H          1.50859        2.90203        3.85924
H          0.27283        1.65310        3.53858
H          1.91236        1.19607        4.08662
H         -0.08034        1.31490        1.17312
H          1.33503        1.47070       -0.03147
H          5.74771        0.39982        3.65862
H          5.31366        2.21341        3.71006
