27
2-METHYLANTHRACENE.gamout	Energy:    -578.0605668
C          4.04436        1.41641        0.81779
C          3.28477        1.27903        2.11655
C          3.80974        1.73526        3.30657
C          1.99952        0.64413        2.13536
C          3.11490        1.59124        4.54897
C          1.29603        0.48263        3.30285
C          1.82087        0.94491        4.55090
C          3.64545        2.05404        5.76419
C          1.13044        0.79580        5.76354
C          2.95654        1.90489        6.97793
C          1.66200        1.25630        6.97806
C          3.48775        2.37268        8.22365
C          0.96979        1.10716        8.22334
C          2.79034        2.21123        9.39550
C          1.51513        1.56910        9.39570
H          3.38695        1.27528       -0.05346
H          4.84891        0.66320        0.74659
H          4.51916        2.40650        0.72928
H          4.78812        2.22629        3.31825
H          1.57581        0.28217        1.19393
H          0.31738       -0.00590        3.29209
H          4.62382        2.54431        5.76584
H          0.15198        0.30570        5.76168
H          4.46489        2.86433        8.22453
H         -0.00669        0.61429        8.22233
H          3.21028        2.57550       10.33696
H          0.97388        1.44574       10.33760
