32
2-METHYL-3-ETHYLHEPTANE.gamout	Energy:    -393.7445673
C          4.07636        4.41163        1.04948
C          4.95155        3.26278        1.60583
C          6.40056        3.75139        1.90506
C          4.91007        2.04868        0.63624
C          2.55358        4.19209        1.08728
C          6.45191        4.81350        3.01493
C          7.37471        2.62295        2.27356
C          4.75541        0.67952        1.30430
C          1.92429        4.24872        2.48396
C          0.40691        4.05433        2.47196
H          4.38326        4.59597        0.00367
H          4.29262        5.34798        1.58766
H          4.52168        2.93586        2.57249
H          6.77799        4.21623        0.97185
H          4.07339        2.17978       -0.06916
H          5.81674        2.05356        0.00478
H          2.29381        3.22897        0.60932
H          2.07758        4.96631        0.45865
H          6.10292        4.39363        3.97505
H          5.83817        5.69855        2.79567
H          7.48482        5.16580        3.16897
H          8.38098        3.03291        2.45741
H          7.06101        2.10565        3.19719
H          7.47107        1.86777        1.48041
H          3.80479        0.61161        1.86044
H          5.56717        0.47127        2.01871
H          4.75783       -0.13007        0.55631
H          2.16656        5.22087        2.95189
H          2.37998        3.48194        3.13576
H         -0.09378        4.82158        1.85656
H          0.12946        3.06990        2.05706
H         -0.01598        4.11546        3.48731
