32
2-METHYL-5-ETHYLHEPTANE.gamout	Energy:    -393.7487756
C          3.13483        3.45228        3.08805
C          1.58242        3.48824        3.10752
C          1.01142        4.43700        2.03355
C          1.02076        3.87053        4.49062
C          3.75263        2.05004        3.20040
C          1.19967        3.96885        0.58875
C          1.40050        2.95463        5.65557
C          5.28655        2.00581        3.33594
C          6.00672        2.58544        2.11371
C          5.76979        0.57621        3.60991
H          3.49430        3.92680        2.16080
H          3.52138        4.08629        3.90809
H          1.21265        2.47059        2.86986
H          1.46540        5.43790        2.16227
H         -0.06840        4.57122        2.22150
H         -0.08075        3.90486        4.41728
H          1.33751        4.90538        4.72319
H          3.31520        1.53118        4.07082
H          3.45414        1.45260        2.31702
H          0.70285        2.99896        0.41587
H          2.26264        3.84566        0.32196
H          0.76884        4.69326       -0.12026
H          2.48617        2.94459        5.84481
H          1.08631        1.91314        5.47121
H          0.91348        3.28640        6.58630
H          5.55806        2.62559        4.21318
H          5.74607        2.02304        1.19945
H          7.10063        2.53052        2.23571
H          5.75068        3.64174        1.93970
H          6.86161        0.54439        3.75416
H          5.52616       -0.09395        2.76661
H          5.29988        0.15555        4.51342
