19
2-METHYL_TETRAHYDROFURAN.gamout	Energy:    -310.6532585
C          3.50841        3.64469        0.86807
C          3.66152        2.52781        1.90822
C          3.20577        1.14290        1.40953
O          3.03031        2.85463        3.14629
C          1.67584        1.00844        1.38641
C          1.61508        2.80000        3.14525
C          1.09559        1.41870        2.74587
H          4.15455        3.44690       -0.00232
H          2.47665        3.74813        0.49655
H          3.80856        4.60760        1.30993
H          4.73174        2.46513        2.16751
H          3.63748        0.94494        0.41355
H          3.61798        0.38060        2.09350
H          1.24598        1.64695        0.59331
H          1.38992       -0.02702        1.13637
H          1.30163        3.06166        4.16837
H          1.18836        3.56825        2.46693
H         -0.00799        1.42730        2.72295
H          1.39957        0.68668        3.51532
