24
2-METHYL-3-ETHYL-1-PENTENE.gamout	Energy:    -314.0155520
C          2.91541        3.18938        2.49839
C          2.84802        1.66222        2.49241
C          1.41984        1.16323        2.12977
C          3.93159        0.96389        1.64799
C          2.39673        3.85314        3.75172
C          3.37762        3.92047        1.47287
C          0.96664        1.41254        0.69011
C          5.35716        1.14455        2.17494
H          3.01230        1.34173        3.53949
H          1.38085        0.07949        2.34149
H          0.69596        1.62960        2.82056
H          3.87712        1.30634        0.60088
H          3.69473       -0.11508        1.61961
H          3.01250        3.57218        4.62512
H          1.36573        3.53294        3.98297
H          2.40069        4.95030        3.66888
H          3.77413        3.46783        0.56080
H          3.37973        5.01398        1.51573
H          1.00575        2.48276        0.43139
H         -0.07173        1.07133        0.54719
H          1.59094        0.87057       -0.03886
H          5.45507        0.74930        3.20058
H          5.64982        2.20585        2.19974
H          6.08627        0.61022        1.54412
