21
2-METHYL-TRANS-3-HEXENE.gamout	Energy:    -274.7653753
C          1.61484        1.84547        0.64002
C          2.01466        2.11413        2.10210
C          3.25227        1.33478        2.47548
C          0.85135        1.78868        3.05594
C          4.42426        1.85761        2.85694
C          5.65193        1.07526        3.23707
C          6.11568        1.33413        4.67850
H          1.38582        0.77689        0.48333
H          0.71699        2.42235        0.36179
H          2.42554        2.11862       -0.05403
H          2.24796        3.19014        2.20067
H          3.15656        0.23961        2.41815
H          0.58853        0.71754        3.00641
H         -0.05149        2.36492        2.79275
H          1.11262        2.02063        4.10068
H          4.51558        2.95244        2.91624
H          5.46033       -0.00236        3.09439
H          6.47730        1.33889        2.54816
H          6.32970        2.40353        4.84518
H          7.03472        0.77084        4.90854
H          5.34169        1.03495        5.40407
