15
2-METHYL-1-BUTENE.gamout	Energy:    -196.2516626
C          1.17320        1.18338        0.14788
C          0.54735       -0.16721       -0.10330
C          1.21616       -1.30813        0.11926
C         -0.87900       -0.17036       -0.61672
C         -1.91857        0.32200        0.40314
H          1.18282        1.78919       -0.77617
H          0.60180        1.76294        0.89357
H          2.20764        1.09242        0.51088
H          0.75971       -2.28464       -0.07150
H          2.24397       -1.30690        0.49561
H         -0.93505        0.46716       -1.51958
H         -1.14396       -1.19073       -0.93959
H         -1.91088       -0.30753        1.30778
H         -1.73014        1.36139        0.71739
H         -2.93354        0.28834       -0.02515
