16
2-METHYL-TRANS-1,3-PENTADIENE.gamout	Energy:    -234.2886300
C          0.97632        0.99088        1.15197
C          1.76892        2.07550        1.07427
C          1.20067        3.46312        0.88220
C          3.24205        2.00107        1.18937
C          4.02418        0.99937        0.75266
C          5.51551        0.94176        0.89871
H         -0.10885        1.07016        1.03671
H          1.38364       -0.00582        1.34310
H          1.50194        4.12735        1.71184
H          1.58250        3.92475       -0.04551
H          0.10153        3.45230        0.83562
H          3.72728        2.87314        1.65069
H          3.55202        0.15223        0.23826
H          6.01256        0.85560       -0.08423
H          5.91127        1.83589        1.40590
H          5.82472        0.05529        1.48187
