32
2-METHYL-4-ETHYLHEPTANE.gamout	Energy:    -393.7506476
C         -0.75642        0.36698        0.16043
C          0.71452        0.77526        0.25565
C          0.95539        2.25651       -0.05970
C          2.42780        2.71726        0.00363
C          3.21781        2.22483       -1.22896
C          2.52993        4.25148        0.15290
C          4.75713        2.22335       -1.11958
C          5.27423        1.18048       -0.11888
C          5.39229        2.00762       -2.50002
C          2.14211        4.79768        1.52888
H         -0.89875       -0.69829        0.40518
H         -1.38175        0.95338        0.85535
H         -1.15652        0.52996       -0.85511
H          1.31282        0.14118       -0.42236
H          1.08915        0.55883        1.27346
H          0.35257        2.85730        0.64370
H          0.55364        2.48833       -1.06543
H          2.87451        2.26271        0.90835
H          2.90021        1.19867       -1.48789
H          2.92290        2.85106       -2.09196
H          3.56289        4.56844       -0.07089
H          1.90111        4.72191       -0.62659
H          5.08028        3.21954       -0.76364
H          6.37415        1.20998       -0.04795
H          4.87673        1.34043        0.89589
H          4.98915        0.16013       -0.43076
H          6.49353        2.02467       -2.44557
H          5.07970        2.78687       -3.21468
H          5.09809        1.03166       -2.92559
H          2.23913        5.89505        1.56411
H          1.10074        4.55488        1.79551
H          2.78939        4.38233        2.32011
