16
2-METHYL-2,3-PENTADIENE.gamout	Energy:    -234.2741256
C          0.97550        0.81188        0.16652
C          2.34966        0.19089        0.02149
C          2.89719       -0.01653       -1.15852
C          3.44141       -0.22537       -2.33593
C          3.29777       -1.48138       -3.16197
C          3.05934       -0.17436        1.30868
H          1.02957        1.74392        0.75733
H          0.29446        0.13037        0.70746
H          0.52673        1.04640       -0.80913
H          4.05915        0.57439       -2.77257
H          2.66774       -2.22792       -2.65601
H          4.28367       -1.93794       -3.35966
H          2.84691       -1.25858       -4.14512
H          2.45973       -0.89548        1.89290
H          3.19456        0.71818        1.94612
H          4.04782       -0.61760        1.12221
