21
2-METHYL-1-HEXENE.gamout	Energy:    -274.7643160
C          4.25760        2.47364        2.41456
C          5.37821        1.52602        2.79084
C          3.01120        1.79154        1.82153
C          6.08550        0.82664        1.65544
C          5.72664        1.32380        4.06989
C          1.88992        2.77727        1.47521
C          0.64494        2.10408        0.89471
H          4.64002        3.20830        1.67953
H          3.95699        3.05090        3.30542
H          2.63555        1.04409        2.54397
H          3.28613        1.22839        0.91147
H          6.90943        0.19343        2.01695
H          5.39557        0.18552        1.07933
H          6.50166        1.55903        0.94046
H          6.53422        0.63760        4.34329
H          5.21613        1.83932        4.88940
H          2.27439        3.52438        0.75650
H          1.61307        3.34490        2.38268
H          0.88036        1.55847       -0.03498
H          0.21505        1.37587        1.60330
H         -0.14061        2.84009        0.65785
