21
2-METHYL-1-PENTANOL.gamout	Energy:    -311.8525729
C          3.13130        2.07015        2.84452
C          1.95910        1.80658        1.87985
C          1.38960        3.10734        1.30845
C          0.85460        0.97629        2.54354
C          4.43506        2.55192        2.19470
O          0.43774        2.79298        0.30800
C          5.56956        2.76252        3.19955
H          2.81335        2.79874        3.61598
H          3.34211        1.13538        3.39497
H          2.34594        1.23409        1.01517
H          0.92994        3.69030        2.13579
H          2.20819        3.72677        0.89122
H          1.22992       -0.01242        2.85438
H          0.46677        1.48464        3.44439
H          0.01366        0.82646        1.85100
H          4.74970        1.81574        1.43233
H          4.26143        3.49413        1.64591
H          0.01572        3.61089        0.01798
H          5.30443        3.52404        3.95295
H          5.80227        1.83135        3.74399
H          6.49456        3.09616        2.70184
