32
2-METHYLNONANE.gamout	Energy:    -393.7558794
C          4.64744       -0.90254        0.02547
C          3.48839        0.06678        0.29513
C          3.74601        1.41545       -0.39077
C          2.14353       -0.56288       -0.11985
C          0.88965        0.22076        0.28304
C         -0.41940       -0.45060       -0.14634
C         -1.67594        0.32534        0.26133
C         -2.98662       -0.33648       -0.17467
C         -4.24256        0.44005        0.23528
C         -5.54714       -0.22646       -0.20491
H          5.61062       -0.47948        0.35614
H          4.50435       -1.86251        0.54853
H          4.73627       -1.12191       -1.05316
H          3.45038        0.24305        1.38793
H          3.80161        1.29235       -1.48701
H          2.95669        2.15301       -0.17748
H          4.70238        1.85371       -0.06019
H          2.14654       -0.71434       -1.21705
H          2.08016       -1.57572        0.31900
H          0.88602        0.35905        1.38101
H          0.92205        1.23783       -0.14641
H         -0.41431       -0.58510       -1.24462
H         -0.46705       -1.47140        0.27773
H         -1.68107        0.45764        1.35991
H         -1.62666        1.34701       -0.16053
H         -2.98186       -0.46612       -1.27376
H         -3.03809       -1.35906        0.24507
H         -4.24623        0.56822        1.33368
H         -4.18992        1.46221       -0.18313
H         -5.59285       -0.33413       -1.30216
H         -5.64683       -1.23639        0.22800
H         -6.42780        0.35776        0.10804
