20
2-METHYLQUINOLINE.gamout	Energy:    -440.6547304
C         -1.59611       -1.41682        1.55974
C         -0.56350       -0.33101        1.73595
N         -1.17805       -2.61622        1.20978
C         -2.98036       -1.12381        1.77273
C         -2.08662       -3.61913        1.04237
C         -3.91588       -2.11694        1.61011
C         -3.49329       -3.42146        1.23274
C         -1.62083       -4.90936        0.66507
C         -4.38336       -4.51284        1.04044
C         -2.50847       -5.95096        0.48565
C         -3.90073       -5.75319        0.67408
H         -0.58458        0.07485        2.76193
H          0.43668       -0.73606        1.53308
H         -0.75438        0.51274        1.05081
H         -3.27943       -0.11279        2.06230
H         -4.98094       -1.91955        1.76663
H         -0.54501       -5.03649        0.52605
H         -5.45597       -4.35390        1.18742
H         -2.14015       -6.93897        0.19578
H         -4.59033       -6.58885        0.52771
