61
2-MONOPALMITIN.gamout	Energy:   -1046.3942648
O         -6.99242        0.16521       -0.34072
C         -8.28029       -0.28283        0.10644
C         -5.92347       -0.12073        0.42929
C         -8.56025       -1.68751       -0.44232
C         -9.31116        0.73630       -0.35549
C         -4.66876        0.53894       -0.10135
O         -5.98482       -0.79615        1.42999
O         -9.74542       -2.22875        0.09893
O         -9.19726        1.98783        0.28228
C         -3.38859       -0.23415        0.22583
C         -2.10951        0.56351       -0.05350
C         -0.81973       -0.24071        0.15818
C          0.46598        0.57174       -0.04894
C          1.75590       -0.24325        0.11830
C          3.04189        0.57341       -0.06981
C          4.33203       -0.24267        0.08929
C          5.61781        0.57681       -0.08693
C          6.90829       -0.23879        0.07215
C          8.19378        0.58266       -0.09613
C          9.48485       -0.23213        0.06217
C         10.76990        0.58946       -0.10188
C         12.05839       -0.22552        0.05782
C         13.33318        0.60473       -0.10538
H         -8.26367       -0.33829        1.20927
H         -7.68234       -2.33007       -0.24968
H         -8.69913       -1.63748       -1.53530
H        -10.30989        0.27822       -0.22618
H         -9.16728        0.91610       -1.43400
H         -4.63764        1.54306        0.36295
H         -4.78550        0.71185       -1.18231
H         -9.56965       -2.47493        1.01694
H         -9.52370        1.89876        1.18711
H         -3.37702       -1.17411       -0.35535
H         -3.42373       -0.53539        1.28585
H         -2.09743        1.45684        0.59888
H         -2.13046        0.94918       -1.09039
H         -0.81940       -1.10799       -0.52832
H         -0.81961       -0.66632        1.17925
H          0.47607        1.41879        0.66263
H          0.45221        1.02822       -1.05690
H          1.74988       -1.08488       -0.59977
H          1.76510       -0.70742        1.12274
H          3.04902        1.40973        0.65454
H          3.03103        1.04550       -1.07058
H          4.32830       -1.07535       -0.63927
H          4.33948       -0.71965        1.08777
H          5.62112        1.40841        0.64289
H          5.61048        1.05557       -1.08457
H          6.90750       -1.06832       -0.66006
H          6.91275       -0.72041        1.06845
H          8.19452        1.41037        0.63818
H          8.18862        1.06700       -1.09111
H          9.48594       -1.05985       -0.67214
H          9.48855       -0.71636        1.05726
H         10.77086        1.41613        0.63386
H         10.76857        1.07535       -1.09632
H         12.06056       -1.05183       -0.67701
H         12.06068       -0.71012        1.05189
H         13.38524        1.07148       -1.10398
H         14.23540       -0.01450        0.01944
H         13.38176        1.41744        0.63945
