19
2-NAPHTHALENOL.gamout	Energy:    -460.5029595
C          5.93893        0.80272        3.04505
O          7.16589        0.94708        3.61242
C          4.84200        0.62603        3.86984
C          5.76849        0.82988        1.63319
C          3.54124        0.46994        3.32355
C          4.51513        0.68040        1.07950
C          3.36617        0.49649        1.89701
C          2.39065        0.28567        4.14485
C          2.06000        0.33900        1.35485
C          1.13798        0.13579        3.58707
C          0.96755        0.16225        2.17835
H          7.83011        1.06096        2.92037
H          4.99121        0.60767        4.95194
H          6.64324        0.97035        0.98908
H          4.39501        0.70241       -0.00737
H          2.51739        0.26462        5.23093
H          1.93483        0.36036        0.26819
H          0.26740       -0.00468        4.23358
H         -0.03057        0.04238        1.74916
