20
2-NAPHTHYLAMINE.gamout	Energy:    -440.6566189
N          8.04829        2.51523       -0.10206
C          6.90329        1.81409        0.24777
C          6.83149        1.18195        1.52848
C          5.79351        1.74966       -0.58785
C          5.69433        0.52074        1.92909
C          4.54544        0.44376        1.09139
C          3.35650       -0.23180        1.47971
C          4.60596        1.07838       -0.19567
C          2.26324       -0.28500        0.63848
C          2.31978        0.34045       -0.63334
C          3.45936        1.00383       -1.03974
H          8.16783        2.72600       -1.08617
H          8.91036        2.23313        0.35005
H          7.69850        1.23403        2.19409
H          5.82840        2.22746       -1.57200
H          5.66238        0.04235        2.91238
H          3.32114       -0.71177        2.46240
H          1.35408       -0.80710        0.94775
H          1.45063        0.29540       -1.29561
H          3.49776        1.48429       -2.02176
