16
2-PENTANONE.gamout	Energy:    -271.4094786
O          1.21883       -1.25677        0.01144
C         -1.45979       -0.40089        0.00490
C         -0.30084        0.59499        0.00061
C         -2.83340        0.27114        0.00093
C          1.07962       -0.05332        0.00450
C          2.27215        0.88803       -0.00083
H         -0.35796        1.26545       -0.87873
H         -0.35871        1.27420        0.87316
H         -1.35720       -1.06693       -0.86795
H         -1.35820       -1.05884        0.88398
H         -2.97185        0.90615       -0.89089
H         -2.97307        0.91430        0.88670
H         -3.64284       -0.47641        0.00377
H          2.24421        1.55075        0.88067
H          2.24461        1.53997       -0.89035
H          3.20430        0.30758        0.00291
