18
2-PENTANOL.gamout	Energy:    -272.6003773
C          2.23210        1.75855        3.03561
C          1.61864        2.58242        1.89414
C          1.01033        1.75206        0.75984
C          3.42577        0.85478        2.68433
C          4.63867        1.61519        2.14541
O          3.78212        0.06078        3.80951
H          1.45917        1.11063        3.48516
H          2.55977        2.44734        3.83899
H          2.37671        3.27241        1.48236
H          0.83544        3.23246        2.32214
H          0.22989        1.07040        1.13836
H          1.76568        1.13440        0.24655
H          0.54737        2.39971       -0.00211
H          3.10897        0.11808        1.92581
H          4.96195        2.39295        2.86108
H          4.42448        2.11340        1.18648
H          5.47864        0.92011        1.99453
H          4.04903        0.66173        4.51953
