20
2-PHENYLPROPIONATE-1.gamout	Energy:    -498.2257711
O          2.84959        1.19740        0.36268
O          2.11009       -0.51238        1.64910
C          1.22302       -0.30261       -0.58245
C         -0.24473       -0.10850       -0.28626
C          1.53707       -1.77595       -0.88897
C         -0.80663       -0.54683        0.92912
C         -1.10182        0.50540       -1.21603
C          2.16330        0.19192        0.61222
C         -2.16513       -0.37703        1.19275
C         -2.46537        0.67515       -0.95467
C         -3.00772        0.23097        0.25368
H          1.48024        0.31432       -1.45806
H          1.41879       -2.37305        0.02832
H          0.88585       -2.19112       -1.67989
H          2.58477       -1.88043       -1.21830
H         -0.12010       -0.97251        1.66523
H         -0.68436        0.85959       -2.16367
H         -2.57420       -0.71661        2.14952
H         -3.10618        1.16033       -1.69840
H         -4.07275        0.36464        0.46638
