27
2-PROPYLNAPHTHALENE.gamout	Energy:    -503.1410409
C          5.80250        1.46817       -0.69978
C          6.94514        1.52651        0.07138
C          4.57579        0.99378       -0.15425
C          6.91554        1.11334        1.42812
C          5.74234        0.64959        1.98710
C          4.54704        0.57642        1.21835
C          3.31494        0.10854        1.75680
C          3.37914        0.92212       -0.92176
C          2.18957        0.46287       -0.38474
C          2.17727        0.05462        0.98192
C          0.93262        0.35971       -1.21962
C         -0.66770       -1.16255       -2.51673
C          0.61255       -1.07380       -1.68494
H          5.82459        1.78704       -1.74598
H          7.87988        1.89263       -0.36172
H          7.82703        1.16408        2.02969
H          5.71655        0.33107        3.03338
H          3.28313       -0.20498        2.80442
H          3.41208        1.24636       -1.96700
H          1.24043       -0.30231        1.42074
H          0.07367        0.74432       -0.63999
H          1.02675        1.01125       -2.10546
H         -0.87119       -2.19815       -2.83374
H         -1.54411       -0.81061       -1.94638
H         -0.59789       -0.54351       -3.42745
H          1.46731       -1.45795       -2.26892
H          0.52927       -1.73074       -0.80070
