32
3,3,4,4-TETRAMETHYLHEXANE.gamout	Energy:    -393.7340241
C          3.14246        2.42835        1.80650
C          4.56403        2.08537        2.47347
C          5.66988        2.01798        1.37840
C          4.97054        3.16769        3.49776
C          4.50587        0.73572        3.22051
C          2.12285        2.85160        2.90402
C          2.59032        1.20593        1.04302
C          3.26826        3.58894        0.79670
C          7.02718        1.43003        1.78585
C          0.64779        2.94595        2.49287
H          5.29639        1.43219        0.52185
H          5.84168        3.03659        0.99626
H          4.31943        3.16425        4.38342
H          4.94491        4.17866        3.06220
H          5.99632        2.99324        3.85750
H          4.43288       -0.11999        2.53238
H          5.41070        0.58669        3.82989
H          3.64878        0.68468        3.90930
H          2.42652        3.83287        3.30228
H          2.19065        2.14796        3.75000
H          2.26582        0.40253        1.72140
H          1.71929        1.48836        0.43192
H          3.33875        0.78329        0.35617
H          2.27460        3.89969        0.43887
H          3.74647        4.47574        1.24067
H          3.84822        3.30143       -0.09189
H          6.96265        0.36365        2.05327
H          7.47960        1.95948        2.64033
H          7.73502        1.51118        0.94568
H          0.48642        3.62994        1.64349
H          0.22283        1.96830        2.21647
H          0.05052        3.33224        3.33421
