32
3,3,4-TRIMETHYLHEPTANE.gamout	Energy:    -393.7412191
C          5.55261        2.04615        2.53375
C          4.09523        1.83381        2.03355
C          6.43155        0.80177        2.71379
C          3.37666        0.85947        2.98771
C          4.11341        1.22092        0.62182
C          3.34595        3.22179        2.04690
C          1.88168        3.15205        1.55266
C          4.08274        4.33491        1.28292
C          0.67193        4.37507        3.48280
C          0.97122        4.31598        1.98295
H          6.06915        2.72000        1.83223
H          5.50935        2.59035        3.49511
H          6.54167        0.23186        1.77707
H          7.44346        1.10068        3.03084
H          6.04415        0.11342        3.48118
H          3.28789        1.28479        4.00165
H          3.92035       -0.09299        3.07205
H          2.36299        0.61130        2.64024
H          4.57016        0.21924        0.63267
H          4.69128        1.83671       -0.08559
H          3.09713        1.10680        0.21565
H          3.32370        3.51399        3.11288
H          1.87965        3.10247        0.44961
H          1.40612        2.21845        1.89302
H          4.24272        4.06357        0.22603
H          3.49720        5.26644        1.29171
H          5.06103        4.57544        1.72130
H          1.57923        4.54752        4.08451
H         -0.03215        5.19001        3.71469
H          0.21826        3.43305        3.83635
H          1.39742        5.28052        1.65377
H          0.01826        4.21794        1.43480
