22
3,3-DIMETHYLCYCLOHEXENE.gamout	Energy:    -312.8246085
C         -0.32737       -1.41281        0.07206
C         -1.26599       -0.45848        0.13324
C         -0.98980        1.03692        0.13118
C          0.52320        1.28881        0.35674
C          1.41713        0.33067       -0.43770
C          1.14843       -1.12574       -0.03854
C         -1.79365        1.69874        1.26936
C         -1.45433        1.64001       -1.21444
H         -0.63317       -2.46518        0.10332
H         -2.32217       -0.75032        0.19297
H          0.76137        2.33802        0.11052
H          0.74205        1.16279        1.43278
H          2.47980        0.58000       -0.28055
H          1.22585        0.45306       -1.51829
H          1.63799       -1.35220        0.92986
H          1.60952       -1.81826       -0.76540
H         -1.52398        1.27251        2.24931
H         -2.87814        1.55641        1.12672
H         -1.60003        2.78420        1.30587
H         -0.87330        1.24211       -2.06079
H         -1.34648        2.73829       -1.20984
H         -2.51515        1.40827       -1.40677
