32
3,4,4-TRIMETHYLHEPTANE.gamout	Energy:    -393.7428544
C         -0.16161       37.00900       -0.14451
C          1.35476       36.88531        0.02843
C          2.06521       38.24466       -0.04534
C          3.62152       38.25008       -0.00053
C          4.12337       39.73559        0.18143
C          4.09383       37.41281        1.20754
C          4.18502       37.63009       -1.29587
C          5.66165       39.88726        0.09676
C          3.45586       40.74350       -0.77196
C          6.21120       41.11697        0.82719
H         -0.65765       36.02725       -0.07554
H         -0.60301       37.65899        0.63043
H         -0.42180       37.44504       -1.12422
H          1.75034       36.20727       -0.74812
H          1.56478       36.39922        0.99586
H          1.69174       38.87249        0.78594
H          1.73731       38.74530       -0.97230
H          3.82778       40.01944        1.21004
H          5.18659       37.44588        1.33173
H          3.81978       36.35281        1.09325
H          3.64050       37.77676        2.14534
H          3.88939       38.20613       -2.18804
H          5.28490       37.58053       -1.27988
H          3.82055       36.60013       -1.43416
H          6.15649       38.99560        0.51312
H          5.96372       39.93097       -0.96514
H          3.89593       41.74533       -0.64914
H          2.37601       40.84720       -0.59333
H          3.59600       40.45598       -1.82769
H          7.30632       41.18564        0.72127
H          5.78721       42.05784        0.43995
H          5.98500       41.07424        1.90633
