21
3,4-DIMETHYL-1-PENTENE.gamout	Energy:    -274.7572233
C          2.02933        2.07684        2.82051
C          2.19314        3.43162        2.05965
C          3.63441        3.88985        2.10451
C          1.59247        3.43739        0.64965
C          0.56281        1.76410        3.14768
C          2.70280        0.89740        2.10578
C          4.41661        4.23666        1.07695
H          2.55079        2.21301        3.78683
H          1.62757        4.17046        2.66289
H          4.06259        3.93189        3.11578
H          0.53550        3.13070        0.66089
H          2.13146        2.75834       -0.03008
H          1.63570        4.44677        0.21112
H         -0.02966        1.57351        2.23752
H          0.08336        2.59495        3.69202
H          0.48684        0.86357        3.77880
H          2.19356        0.65219        1.15869
H          2.67507       -0.00758        2.73470
H          3.75761        1.11299        1.87235
H          5.44927        4.55932        1.23912
H          4.06813        4.22030        0.04040
