29
3,4-DIMETHYLHEPTANE.gamout	Energy:    -354.4934004
C          1.56170        2.17431        2.64531
C          2.03631        2.14210        4.12966
C          3.55070        2.39118        4.29701
C          1.59145        0.85136        4.83564
C          1.53556        3.61245        2.08729
C          2.34663        1.21380        1.73750
C          3.98655        2.80488        5.70890
C          0.90336        3.76477        0.70096
C          5.49119        3.05806        5.82541
H          0.51043        1.82615        2.65737
H          1.51327        2.97884        4.63148
H          4.10603        1.48098        4.00318
H          3.87710        3.17905        3.59561
H          1.86184        0.85750        5.90324
H          2.05859       -0.04113        4.38627
H          0.49834        0.72105        4.77524
H          0.98086        4.24846        2.80056
H          2.56309        4.01896        2.06078
H          2.41124        0.20354        2.17151
H          3.37681        1.56825        1.56552
H          1.86695        1.10826        0.75216
H          3.69315        2.02883        6.43744
H          3.43542        3.71699        6.00422
H          1.47958        3.24338       -0.08007
H         -0.12417        3.36208        0.67867
H          0.84800        4.82619        0.40875
H          5.77443        3.35994        6.84698
H          6.07041        2.15320        5.57380
H          5.81903        3.85779        5.13930
