32
3,4-DIMETHYLOCTANE.gamout	Energy:    -393.7457251
C          7.18745        1.55796        1.49976
C          5.91841        1.36201        2.38339
C          4.62137        1.69696        1.61772
C          5.96126        2.04647        3.75832
C          7.37677        2.94152        0.83492
C          8.46793        1.08493        2.20109
C          3.32425        1.17164        2.25153
C          7.79978        4.12180        1.71685
C          2.07098        1.44906        1.41130
C          0.78218        0.91051        2.03575
H          7.03302        0.86457        0.65152
H          5.89075        0.27219        2.57853
H          4.53718        2.79263        1.49316
H          4.69905        1.28343        0.59525
H          6.90705        1.85008        4.28423
H          5.83750        3.13872        3.68354
H          5.15405        1.67211        4.40640
H          8.13970        2.81361        0.04645
H          6.45067        3.20921        0.29970
H          8.74811        1.72649        3.05074
H          9.31773        1.08311        1.49877
H          8.35458        0.05844        2.58642
H          3.41296        0.08075        2.41643
H          3.18471        1.61701        3.25294
H          8.72582        3.91218        2.27575
H          7.99070        5.01074        1.09449
H          7.02801        4.40068        2.45043
H          1.97139        2.53876        1.25144
H          2.20223        1.01072        0.40457
H          0.60077        1.35284        3.03030
H         -0.09416        1.13686        1.40773
H          0.82167       -0.18473        2.16580
