27
3,5-DIETHYLTOLUENE.gamout	Energy:    -428.2205814
C          7.49720        5.63952        1.95437
C          6.64140        5.11825        0.78882
C          5.50868        4.21604        1.23402
C          4.24510        4.74396        1.53462
C          5.71294        2.83801        1.40096
C          3.19969        3.92990        1.99602
C          4.69199        1.99292        1.85904
C          1.82899        4.51294        2.27309
C          3.44253        2.55821        2.15577
C          4.92221        0.50699        2.00511
C          0.90629        4.50349        1.04375
H          6.88766        6.22047        2.66566
H          8.30882        6.29158        1.59102
H          7.95519        4.80831        2.51495
H          7.28847        4.57102        0.08189
H          6.22748        5.97673        0.23283
H          4.07060        5.81843        1.41001
H          6.69532        2.41194        1.17023
H          1.93967        5.54948        2.63491
H          1.34971        3.94671        3.08995
H          2.63700        1.91235        2.52183
H          5.98542        0.27552        2.17357
H          4.61047       -0.03586        1.09471
H          4.34564        0.08755        2.84477
H         -0.08025        4.93389        1.28306
H          1.34057        5.08874        0.21691
H          0.74794        3.47740        0.67357
