10
3-BUTENENITRILE.gamout	Energy:    -209.8556409
N         -2.25488        0.45254       -0.00833
C          0.05584       -0.79528       -0.11168
C          1.19118        0.03627        0.44497
C          2.26076        0.40903       -0.25975
C         -1.23974       -0.10370       -0.05702
H         -0.04704       -1.73573        0.46029
H          0.25775       -1.08004       -1.15762
H          1.09684        0.32833        1.49724
H          3.06026        1.00178        0.19322
H          2.38010        0.13780       -1.31423
