12
3-CYANOPYRIDINE.gamout	Energy:    -340.0752452
N          1.89687       -1.11721        0.00012
N         -2.87589       -0.50015        0.00602
C         -0.30478       -0.13839        0.00238
C          0.25074        1.15375        0.00008
C          1.63776        1.27824       -0.00229
C          0.57306       -1.24241        0.00236
C          2.41536        0.11422       -0.00229
C         -1.72584       -0.33867        0.00439
H         -0.39846        2.03211        0.00008
H          2.11290        2.26158       -0.00419
H          0.16582       -2.25980        0.00427
H          3.50968        0.18326       -0.00427
