29
3-ETHYL-3-METHYLHEXANE.gamout	Energy:    -354.4873011
C          3.50033        2.83695        3.16030
C          2.44559        1.72236        3.41084
C          2.19012        0.98961        2.05750
C          1.08920        2.29135        3.93249
C          3.01283        0.66615        4.38008
C          3.93870        3.72844        4.33035
C          1.53355        1.78668        0.92545
C          0.92702        2.53112        5.43898
C          5.08493        4.66859        3.94593
H          4.40296        2.34915        2.74479
H          3.12527        3.49784        2.35950
H          1.56363        0.10481        2.27154
H          3.15647        0.59310        1.69641
H          0.29026        1.59134        3.62689
H          0.87601        3.23275        3.39622
H          3.28153        1.08673        5.36056
H          3.92165        0.20492        3.95835
H          2.28466       -0.14318        4.55826
H          3.08676        4.33454        4.68165
H          4.25318        3.11017        5.18879
H          0.54209        2.17517        1.20792
H          1.38917        1.14389        0.04163
H          2.14767        2.64298        0.60412
H          1.67334        3.22754        5.84860
H          0.99888        1.59596        6.01694
H         -0.06729        2.96035        5.64619
H          5.97929        4.10507        3.62948
H          5.38011        5.31383        4.78946
H          4.79983        5.32747        3.10774
