14
3-ETHYL_ACROLEIN.gamout	Energy:    -270.1792068
C          2.89653        2.12609        3.77540
C          1.95077        1.70340        2.91667
C          1.07498        2.56959        2.06665
C          3.71140        1.17321        4.56518
C          1.22538        2.27901        0.56429
O          3.60891       -0.03340        4.51735
H          3.09487        3.19440        3.92106
H          1.81976        0.61628        2.82567
H          0.02230        2.38834        2.35642
H          1.28161        3.63323        2.27245
H          4.46518        1.65246        5.24387
H          0.53711        2.90435       -0.02588
H          1.00177        1.22429        0.33452
H          2.25173        2.48503        0.22082
