22
3-HEPTANONE.gamout	Energy:    -349.9231179
C          4.55412        2.58859        1.65384
C          3.77475        3.04151        2.88322
C          2.37671        2.45692        3.05620
O          4.23527        3.83256        3.67794
C          6.00170        3.07480        1.61060
C          1.60358        3.04541        4.23111
C          6.74101        2.67607        0.32944
C          8.18382        3.18318        0.28063
H          4.49720        1.48579        1.58881
H          3.99657        2.94937        0.76718
H          1.82960        2.59037        2.10432
H          2.49026        1.36124        3.16323
H          6.54051        2.68553        2.49252
H          6.01011        4.17184        1.72708
H          2.13845        2.87778        5.17816
H          0.60310        2.59263        4.31219
H          1.48287        4.13409        4.12005
H          6.73213        1.57479        0.22776
H          6.18482        3.06095       -0.54572
H          8.22087        4.28327        0.35193
H          8.77771        2.77973        1.11816
H          8.68468        2.89114       -0.65650
