18
3-METHYL-1-PENTENE.gamout	Energy:    -235.5018921
C          3.63214        1.62499        2.82242
C          2.96993        2.96893        2.42184
C          1.53225        2.77587        1.99128
C          3.82899        3.70554        1.38948
C          2.99183        0.89367        4.00413
C          0.99102        3.09338        0.81032
H          4.69010        1.83167        3.06360
H          3.64502        0.96411        1.93654
H          2.94170        3.58878        3.34153
H          0.88042        2.31427        2.74353
H          3.92322        3.12452        0.45666
H          3.40412        4.68871        1.13214
H          4.84589        3.87123        1.77964
H          1.95048        0.59854        3.79910
H          3.54873       -0.02737        4.24095
H          2.98872        1.52034        4.91255
H          1.56563        3.55898        0.00461
H         -0.06549        2.89789        0.60399
