24
3-METHYL-3-ETHYL-1-PENTENE.gamout	Energy:    -314.0079069
C          0.95876        4.44970        0.42267
C          1.56282        3.15198        0.96896
C          2.77714        3.28044        1.94234
C          3.86495        4.11323        1.27658
C          3.30893        1.86478        2.28820
C          2.34878        4.01835        3.23248
C          5.07527        3.72528        0.86128
C          2.35331        0.91960        3.02415
H          0.60667        5.11656        1.22669
H          1.67400        5.01650       -0.19405
H          0.08848        4.22468       -0.21484
H          1.87782        2.52150        0.11856
H          0.76779        2.59245        1.49089
H          3.59971        5.16857        1.13390
H          3.62947        1.37597        1.35156
H          4.22194        1.98422        2.89764
H          3.16914        4.03263        3.96886
H          2.07638        5.06585        3.02860
H          1.47691        3.53579        3.70171
H          5.75967        4.43955        0.39400
H          5.44089        2.70006        0.96132
H          1.44400        0.70207        2.44149
H          2.84987       -0.04517        3.21763
H          2.03613        1.32065        4.00001
