21
3-METHYL-TRANS-3-HEXENE.gamout	Energy:    -274.7657792
C          3.27194        2.49383        2.34527
C          4.49099        1.92457        2.30511
C          5.64858        2.52553        1.52707
C          4.85264        0.64211        3.01603
C          2.03073        2.01314        3.05021
C          5.39830        3.83049        0.77404
C          0.87967        1.70270        2.07968
H          3.12667        3.42528        1.78537
H          6.49250        2.66717        2.23034
H          6.01015        1.75875        0.81375
H          5.68001        0.80924        3.72936
H          4.01565        0.20071        3.57285
H          5.21399       -0.11439        2.29610
H          2.23873        1.12507        3.66725
H          1.69331        2.79975        3.75198
H          5.09508        4.64286        1.45459
H          6.31350        4.15734        0.25509
H          4.60803        3.71793        0.01439
H          1.14833        0.88340        1.39255
H         -0.03363        1.40614        2.62137
H          0.63032        2.58199        1.46175
