13
3-METHYL-1,2-BUTADIENE.gamout	Energy:    -195.0141050
C          3.06094        2.84179        1.49175
C          2.07710        2.01160        1.21771
C          2.30313        0.51766        1.11179
C          0.66157        2.50074        0.99232
C          4.04137        3.66846        1.76491
H          1.67410       -0.02317        1.84139
H          2.01848        0.15206        0.10897
H          3.35326        0.24853        1.29347
H          0.30668        2.21054       -0.01279
H         -0.02927        2.04147        1.72196
H          0.58579        3.59346        1.08429
H          4.64941        4.12360        0.97269
H          4.29520        3.94038        2.79742
