23
3-METHYLHEXANE.gamout	Energy:    -275.9854521
C          3.20930        3.33155        1.15327
C          4.04154        2.13806        1.66468
C          1.77202        3.41723        1.68012
C          5.53188        2.34098        1.32221
C          3.50579        0.79770        1.14040
C          6.49382        1.31308        1.92299
C          1.01458        4.64452        1.16727
H          3.73413        4.26577        1.42634
H          3.19315        3.31154        0.04613
H          3.95531        2.12772        2.76995
H          1.21000        2.50808        1.40383
H          1.79214        3.43402        2.78566
H          5.64583        2.35640        0.22141
H          5.82989        3.34748        1.66666
H          3.58435        0.74872        0.03969
H          4.06312       -0.05753        1.55283
H          2.44721        0.64835        1.40411
H          7.53892        1.55463        1.66980
H          6.41660        1.28835        3.02367
H          6.29870        0.29261        1.55589
H          0.93812        4.63708        0.06650
H         -0.01017        4.68638        1.57103
H          1.52368        5.58057        1.45396
