24
3-METHYL-1-HEPTENE.gamout	Energy:    -314.0162947
C         51.98691       29.95213       -0.06861
C         50.74981       29.02774       -0.08467
C         49.92801       29.21312       -1.33735
C         51.17167       27.55466        0.06327
C         51.67664       31.45053       -0.01965
C         48.64971       29.59892       -1.38867
C         52.92835       32.33390        0.00478
C         52.61947       33.83077        0.06374
H         52.60913       29.68297        0.80479
H         52.60723       29.73456       -0.95980
H         50.11451       29.29216        0.78145
H         50.45279       28.99187       -2.27853
H         50.29521       26.88859        0.09461
H         51.75294       27.39984        0.98757
H         51.80361       27.23678       -0.78410
H         51.04917       31.72721       -0.88591
H         51.06322       31.66442        0.87664
H         48.11661       29.69870       -2.33882
H         48.08525       29.82815       -0.47797
H         53.55473       32.05284        0.87179
H         53.54092       32.12113       -0.89119
H         53.54113       34.43528        0.08022
H         52.02582       34.15305       -0.80867
H         52.03902       34.08610        0.96688
