18
3-METHYL-CIS-2-PENTENE.gamout	Energy:    -235.5098768
C          3.46549        1.91886        1.22596
C          2.10900        2.59528        1.16891
C          0.94542        1.93724        1.00706
C          2.12856        4.09750        1.32837
C          4.00868        1.73680        2.65356
C          0.72248        0.46088        0.84365
H          3.42445        0.93486        0.73308
H          4.18733        2.52057        0.64372
H          0.02837        2.54173        1.00018
H          2.59739        4.39938        2.28224
H          1.11641        4.52862        1.30053
H          2.72490        4.57241        0.52783
H          4.11071        2.69929        3.18092
H          5.00298        1.26055        2.64033
H          3.33726        1.10130        3.25365
H          0.14803        0.05169        1.69491
H          0.12111        0.25054       -0.05900
H          1.65544       -0.11614        0.76722
