12
3-METHYLTHIOPHENE.gamout	Energy:    -591.8818552
C          3.48711        0.55166        0.91241
C          2.81060        1.89478        0.85660
C          1.38771        2.07148        0.75576
C          3.46243        3.10550        0.89283
C          1.00545        3.38721        0.71839
S          2.37017        4.44754        0.80636
H          3.12992       -0.04205        1.77115
H          3.28133       -0.03914        0.00334
H          4.57859        0.65375        1.00590
H          0.67935        1.24095        0.71286
H          4.53556        3.28112        0.96663
H         -0.00228        3.79477        0.64477
