22
3-OCTYNE.gamout	Energy:    -312.7818966
C          3.39624        3.10901        1.44399
C          4.74210        3.68338        1.37751
C          5.87548        2.65209        1.53952
C          2.28406        2.62568        1.50156
C          7.26909        3.28206        1.46212
C          0.94449        2.03360        1.56220
C          8.40547        2.27099        1.62041
C          0.85368        0.63566        0.92917
H          4.84294        4.46072        2.15784
H          4.86487        4.21146        0.41344
H          5.77077        1.87728        0.75950
H          5.75197        2.13271        2.50634
H          7.35847        4.06112        2.24173
H          7.37606        3.80823        0.49553
H          0.61997        1.98280        2.61764
H          0.22826        2.71162        1.06309
H          8.34970        1.75260        2.59276
H          8.37055        1.49753        0.83433
H          9.39162        2.75939        1.56112
H          1.52976       -0.07190        1.43439
H          1.13380        0.66385       -0.13564
H         -0.17287        0.24257        1.00405
