18
3-PENTANOL.gamout	Energy:    -272.6013320
C          2.57378       -0.04546       -0.01281
C          1.50844        1.04939        0.08338
C          1.46967        1.97685       -1.14017
O          0.26900        0.37531        0.26115
C          4.01893        0.45244       -0.01663
C          0.39427        3.06275       -1.06748
H          2.41091       -0.72177        0.84287
H          2.37099       -0.64364       -0.91926
H          1.73050        1.67067        0.98095
H          2.45731        2.45494       -1.25685
H          1.30984        1.35125       -2.03686
H         -0.41676        1.03239        0.43298
H          4.72571       -0.39226       -0.00356
H          4.25198        1.05603       -0.90914
H          4.23511        1.07466        0.86913
H          0.43825        3.72782       -1.94430
H         -0.62051        2.62980       -1.04645
H          0.51245        3.69401       -0.16924
