26
4-(MMIM)PHO.gamout	Energy:    -610.2737656
N          1.11902       -0.38821       -0.13921
N         -1.06374       -0.50326        0.05239
C          0.06524       -1.27593       -0.11243
C          0.64180        0.90596        0.01245
C         -0.70709        0.83630        0.11543
C          2.48943       -0.70072       -0.50782
C         -2.39937       -0.99258        0.34842
H          1.30685        1.76450        0.01872
H         -1.44675        1.62093        0.24457
H          2.49663       -1.58015       -1.16574
H          2.91584        0.15722       -1.04726
H          3.11767       -0.91267        0.37189
H         -2.89672       -0.28121        1.02339
H         -3.01204       -1.10320       -0.56067
H         -2.32729       -1.97017        0.84350
C          0.12787       -2.68675       -0.23339
C          1.21659       -3.44617        0.31421
C          1.27167       -4.80749        0.21581
C          0.24685       -5.59466       -0.47464
C         -0.84109       -4.79004       -1.03598
C         -0.89753       -3.43135       -0.90829
H          1.99511       -2.92941        0.88060
H          2.09073       -5.36799        0.67243
H         -1.71628       -2.89338       -1.39245
H         -1.61249       -5.33179       -1.58809
O          0.29597       -6.82518       -0.57505
