13
4-BROMOPHENOL.gamout	Energy:   -2880.1957882
Br        -3.26924        0.00035       -0.02519
O          2.79458       -0.07595        0.03940
C          1.43907       -0.01282        0.02495
C          0.72781       -1.22257        0.01798
C          0.73429        1.19969        0.01702
C         -0.66666       -1.21893        0.00321
C         -0.66351        1.20677        0.00220
C         -1.36013       -0.00338       -0.00467
H          1.28452       -2.16208        0.02422
H          1.28001        2.14894        0.02236
H         -1.21347       -2.16388       -0.00219
H         -1.20372        2.15542       -0.00394
H          3.16315        0.81748        0.04298
