13
4-CHLOROPHENOL.gamout	Energy:    -766.4682378
Cl        -2.26409        0.08227       -0.14354
O          3.61513        0.01465        0.44918
C          2.26555        0.07583        0.31374
C          1.56033        1.28705        0.26350
C          1.56130       -1.13461        0.22183
C          0.16987        1.29186        0.12342
C          0.17420       -1.13241        0.08216
C         -0.52080        0.08147        0.03302
H          2.10064        2.23679        0.33429
H          2.11833       -2.07309        0.26175
H         -0.37729        2.23556        0.08441
H         -0.37375       -2.07384        0.01059
H          3.97812        0.90874        0.50143
