16
4-CHLORO-3-METHYLPHENOL.gamout	Energy:    -805.7289769
Cl        -3.08841        0.88582        0.17177
O          2.65456       -0.40529       -0.29562
C         -0.96864       -0.84872       -0.02454
C          0.40381       -1.10235       -0.13538
C         -1.37967        0.49839        0.03324
C          1.34392       -0.06330       -0.18768
C         -1.96198       -1.97948        0.03004
C         -0.45610        1.54257       -0.01753
C          0.90866        1.26644       -0.12802
H          0.77026       -2.13046       -0.18438
H         -2.54976       -1.94696        0.96222
H         -2.68518       -1.91289       -0.79942
H         -1.45495       -2.95333       -0.02795
H         -0.80876        2.57448        0.03010
H          1.63106        2.08779       -0.16763
H          3.19677        0.39418       -0.32179
