24
4-ETHYL-CIS-2-HEXENE.gamout	Energy:    -314.0175205
C          1.52859        0.79000        1.20210
C          2.55996        0.18416        0.29292
C          2.81471       -1.11617        0.07947
C          2.15250       -2.32386        0.70012
C          1.56627       -3.24947       -0.38962
C          0.45267       -2.61863       -1.22806
C          3.17063       -3.06321        1.60435
C          2.59239       -4.20006        2.45240
H          0.83672        1.43934        0.63642
H          2.00517        1.43475        1.96222
H          0.92610        0.03724        1.73052
H          3.17651        0.90937       -0.25436
H          3.62135       -1.35759       -0.62737
H          1.31795       -1.99220        1.34391
H          1.17740       -4.16531        0.08623
H          2.39006       -3.57546       -1.05272
H         -0.40566       -2.32678       -0.59864
H          0.08052       -3.32471       -1.98823
H          0.79828       -1.71232       -1.75104
H          3.63203       -2.31844        2.27515
H          3.99131       -3.45072        0.97215
H          1.75972       -3.84387        3.08319
H          3.36025       -4.61702        3.12411
H          2.21074       -5.03241        1.83996
