24
4-ETHYL-TRANS-2-HEXENE.gamout	Energy:    -314.0210229
C          0.86438        1.56500       -0.66002
C          1.59920        2.29378        0.19003
C          1.78504        3.79115        0.15471
C          3.26761        4.16828       -0.06967
C          3.84422        3.72234       -1.41399
C          1.25084        4.45266        1.44654
C          0.69049        0.07479       -0.61137
C         -0.25467        4.29977        1.66671
H          0.33590        2.08645       -1.47067
H          2.13082        1.77518        1.00309
H          1.20157        4.19053       -0.69728
H          3.87061        3.74044        0.75329
H          3.36405        5.26498        0.02256
H          4.89891        4.02627       -1.51455
H          3.28799        4.16961       -2.25571
H          3.79534        2.62832       -1.53378
H          1.79685        4.03153        2.31160
H          1.50792        5.52666        1.41920
H          1.24804       -0.37480        0.22561
H         -0.37329       -0.20160       -0.49908
H          1.03799       -0.40082       -1.54609
H         -0.57271        4.78927        2.60169
H         -0.82740        4.75653        0.84131
H         -0.55163        3.24036        1.72344
