32
4-ETHYLOCTANE.gamout	Energy:    -393.7481853
C          5.32905        3.40933        1.25837
C          3.97235        3.95621        1.77233
C          2.87800        2.86599        1.68743
C          3.61936        5.25858        1.01461
C          6.01155        2.34413        2.12910
C          1.63045        3.02987        2.56943
C          2.62431        6.21372        1.68171
C          7.40191        1.93512        1.62324
C          0.72146        1.79787        2.54633
C          8.09040        0.88372        2.49617
H          6.02665        4.25916        1.15258
H          5.19073        3.01112        0.23425
H          4.11031        4.21437        2.84174
H          3.33392        1.89745        1.95475
H          2.56677        2.76086        0.63015
H          4.55812        5.81647        0.85242
H          3.25879        4.99611        0.00205
H          5.38246        1.43830        2.19637
H          6.10266        2.72417        3.16457
H          1.04543        3.90898        2.25435
H          1.94499        3.23388        3.60964
H          2.55374        7.15353        1.11092
H          1.60777        5.79852        1.74641
H          2.94263        6.47448        2.70565
H          8.04478        2.83261        1.55895
H          7.31578        1.55525        0.58825
H         -0.16595        1.93831        3.18433
H          0.36415        1.58094        1.52504
H          1.24986        0.89873        2.90713
H          8.23456        1.24785        3.52786
H          7.49793       -0.04535        2.55477
H          9.08231        0.61845        2.09695
