32
4-ISOPROPYLHEPTANE.gamout	Energy:    -393.7445510
C          4.15942        3.47907        1.75833
C          4.45058        2.08281        1.15838
C          2.79239        4.01788        1.24948
C          5.32605        4.47500        1.49174
C          3.53413        0.93723        1.61813
C          1.86135        4.57859        2.33383
C          5.04077        5.89041        2.01584
C          6.66649        4.00354        2.07529
C          3.71482        0.52281        3.08018
C          0.54262        5.12986        1.78842
H          4.09219        3.36915        2.85824
H          4.39528        2.16552        0.05700
H          5.48815        1.78986        1.38204
H          2.96280        4.79437        0.48122
H          2.25280        3.21371        0.72117
H          5.44286        4.54700        0.39162
H          2.47513        1.19450        1.43574
H          3.73637        0.06312        0.97492
H          2.38316        5.37228        2.89635
H          1.65083        3.78291        3.07224
H          4.13851        6.33454        1.57196
H          5.88087        6.56376        1.78180
H          4.91378        5.89196        3.11250
H          7.44583        4.76655        1.91847
H          7.03225        3.07230        1.62024
H          6.58701        3.83558        3.16411
H          3.46121        1.33547        3.78055
H          3.07080       -0.33483        3.33127
H          4.75742        0.22533        3.28581
H         -0.02950        4.35711        1.24629
H         -0.10079        5.50771        2.59937
H          0.71466        5.96308        1.08579
