31
4-ISOPROPYL_DIPHENYL.gamout	Energy:    -580.4462605
C          3.24024        3.34693        3.33959
C          3.57182        3.82076        2.05667
C          2.58125        4.14614        1.12907
C          1.87577        3.21239        3.65675
C          4.29650        3.00167        4.32714
C          0.88412        3.53923        2.73082
C          1.23123        4.00775        1.46123
C          4.13662        3.27981        5.69712
C          5.12688        2.95859        6.62295
C          5.49597        2.38611        3.93281
C          6.48479        2.06695        4.86399
C          6.32560        2.34403        6.22781
C          7.41357        1.99448        7.22728
C          6.92418        0.99430        8.28510
C          8.00676        3.25048        7.88313
H          4.62162        3.96061        1.78979
H          2.86785        4.51929        0.14301
H          1.58737        2.82261        4.63529
H         -0.16736        3.41796        3.00181
H          0.45516        4.26319        0.73598
H          3.22974        3.78138        6.04185
H          4.96051        3.20380        7.67480
H          5.65108        2.12855        2.88274
H          7.40197        1.58062        4.52084
H          8.22426        1.50366        6.66066
H          7.74730        0.70782        8.95938
H          6.53157        0.07805        7.81753
H          6.11975        1.42242        8.90617
H          8.39682        3.95091        7.12841
H          8.83428        2.98378        8.56022
H          7.24915        3.78848        8.47705
