16
4-METHYLCYCLOPENTENE.gamout	Energy:    -234.3053570
C          0.51428        2.93016        1.60012
C          1.96559        2.53285        1.86300
C          2.61988        1.68123        0.73977
C          3.58546        0.79226        1.48855
C          3.35117        0.80590        2.80705
C          2.18961        1.70558        3.15939
H         -0.12858        2.03930        1.49155
H          0.10527        3.53661        2.42547
H          0.41915        3.52337        0.67522
H          2.56703        3.45441        1.96170
H          1.86401        1.06905        0.20699
H          3.10766        2.30309       -0.03124
H          4.34914        0.18619        0.99298
H          3.89549        0.21233        3.54704
H          1.29477        1.10069        3.41096
H          2.38337        2.34441        4.03888
