16
4-METHYL-1,3-PENTADIENE.gamout	Energy:    -234.2929671
C          1.61838        0.65074        0.96378
C          1.97825        1.79649        1.87432
C          3.19581        1.97463        2.43987
C          0.85807        2.77222        2.12911
C          4.37566        1.13205        2.29606
C          5.55536        1.37593        2.89459
H          1.28582        1.02815       -0.02027
H          0.76904        0.07781        1.37828
H          2.44506       -0.05120        0.79264
H          3.32830        2.85235        3.08531
H          1.16356        3.59157        2.79712
H          0.49793        3.21689        1.18308
H         -0.01282        2.26526        2.58421
H          4.29356        0.24452        1.65899
H          5.69896        2.24727        3.54276
H          6.41498        0.71463        2.75699
