23
4-PROPOXYPHENOL.gamout	Energy:    -499.9582826
O          1.31550        0.66332       -0.16646
O         -4.10941       -0.43310        0.12940
C          3.67662        0.34357       -0.23642
C          2.31779       -0.33329       -0.12569
C          0.00438        0.30082       -0.08602
C          4.83434       -0.65521       -0.20740
C         -0.93563        1.34720       -0.13569
C         -0.45507       -1.01653        0.03913
C         -2.29848        1.08555       -0.06267
C         -1.83198       -1.27655        0.11247
C         -2.76200       -0.23534        0.06266
H          3.69689        0.92942       -1.17117
H          3.77203        1.06904        0.58926
H          2.17798       -1.05434       -0.95637
H          2.24979       -0.91027        0.81856
H          4.76975       -1.37410       -1.04160
H          5.80417       -0.14030       -0.28976
H          4.84654       -1.23525        0.73095
H         -0.56448        2.36991       -0.23421
H          0.24025       -1.85536        0.08102
H         -3.02968        1.89616       -0.10148
H         -2.17671       -2.31156        0.21064
H         -4.29042       -1.37855        0.21187
