32
4-PROPYLHEPTANE.gamout	Energy:    -393.7516076
C          4.11161        3.12761        2.29695
C          3.88326        4.52570        1.67999
C          5.09138        5.45412        1.93311
C          2.57143        5.15958        2.19507
C          3.22777        2.00803        1.73356
C          6.33242        5.16476        1.07983
C          2.00696        6.29523        1.33137
C          3.47613        0.64743        2.38815
C          7.50849        6.09713        1.37830
C          0.72201        6.91026        1.89115
H          3.96512        3.19541        3.39271
H          5.16639        2.83508        2.15423
H          3.78460        4.39698        0.58335
H          5.36036        5.39975        3.00603
H          4.78925        6.50054        1.75330
H          2.73690        5.53053        3.22542
H          1.79876        4.37595        2.28058
H          3.40428        1.92873        0.64479
H          2.16123        2.27279        1.84786
H          6.05895        5.25088        0.01179
H          6.65684        4.11872        1.22500
H          2.76451        7.09050        1.21274
H          1.81332        5.90774        0.31390
H          2.83321       -0.13278        1.95014
H          4.52355        0.32226        2.26371
H          3.27019        0.67605        3.47214
H          7.24073        7.15430        1.20802
H          7.83792        6.00864        2.42787
H          8.37567        5.86803        0.73858
H          0.34453        7.71239        1.23715
H         -0.07894        6.15729        1.98920
H          0.88432        7.34680        2.89176
