20
4-VINYLCYCLOHEXENE.gamout	Energy:    -311.5975249
C          1.01425        2.41788        1.40126
C          1.90493        2.12384        2.35371
C          3.40885        2.21555        2.26511
C          3.95781        2.77127        0.94455
C          4.05585        0.84524        2.57638
C          5.47998        2.96331        1.00862
C          5.54462        0.83727        2.33439
C          6.18360        1.78823        1.63989
H         -0.05902        2.30083        1.57709
H          1.30986        2.78773        0.41525
H          1.53041        1.75412        3.31848
H          3.73442        2.90357        3.07190
H          3.70852        2.07103        0.12677
H          3.47040        3.72873        0.69751
H          3.84522        0.56309        3.62400
H          3.57533        0.05854        1.96198
H          5.88318        3.13911       -0.00471
H          5.72420        3.88213        1.57773
H          6.11413       -0.00000        2.75411
H          7.27145        1.72827        1.51866
