18
5-AMINOLEVULINIC_ACID.gamout	Energy:    -475.7779081
O         -2.07652       -0.40110       -0.61828
O          2.88665        0.50145        0.00678
O          2.43234       -1.57167        0.72792
N         -4.19850       -1.63016        0.72918
C         -0.36401       -0.99541        0.95410
C          0.59745       -0.07590        0.21119
C         -1.79221       -0.92959        0.43587
C         -2.87267       -1.58153        1.30445
C          2.04403       -0.48861        0.36201
H         -0.35885       -0.80054        2.04087
H         -0.01968       -2.04127        0.85439
H          0.49015        0.97647        0.51764
H          0.35618       -0.08801       -0.86625
H         -2.53253       -2.59885        1.57455
H         -2.89442       -1.03090        2.26525
H         -4.16982       -2.17138       -0.13651
H         -4.46329       -0.68949        0.43118
H          3.78857        0.14628        0.09296
