21
5-ETHYLIDENE-2-NORBORNENE.gamout	Energy:    -349.6334326
C         -1.54782        1.00335       -0.15918
C         -1.23443       -1.11905       -0.86284
C         -1.20328        0.29689       -1.49342
C         -0.36870        0.49499        0.74108
C         -0.19719       -0.94145        0.25329
C         -2.77756        0.20319        0.25670
C         -2.59019       -1.06185       -0.15376
C          0.68241       -1.85222        0.68789
C          1.67518       -1.62431        1.80069
H         -1.65961        2.09632       -0.18341
H         -1.06283       -1.98132       -1.52103
H         -0.21497        0.57363       -1.89683
H         -1.97494        0.43703       -2.26546
H         -0.60170        0.56148        1.81668
H          0.54757        1.08664        0.56620
H         -3.58957        0.58218        0.88145
H         -3.20949       -1.93294        0.07112
H          0.68269       -2.83825        0.20730
H          2.28928       -2.51868        1.98578
H          1.17540       -1.36683        2.75191
H          2.36851       -0.79373        1.57509
