24
5-METHYL-CIS-2-HEPTENE.gamout	Energy:    -314.0158902
C          1.06166       -0.35896       -0.48446
C          2.25152        0.23517        0.21350
C          2.79371        1.45077        0.03686
C          2.33054        2.55375       -0.87680
C          3.41814        3.23461       -1.74507
C          3.99853        2.32809       -2.85307
C          5.00143        1.26214       -2.40184
C          2.84699        4.52110       -2.35936
H          1.32256       -1.32234       -0.95768
H          0.64621        0.29657       -1.26363
H          0.25148       -0.57780        0.23459
H          2.72342       -0.41620        0.96073
H          3.66549        1.70223        0.65547
H          1.88420        3.34304       -0.24064
H          1.51678        2.20416       -1.53439
H          4.25139        3.52508       -1.07498
H          4.49718        2.97675       -3.59591
H          3.16064        1.84758       -3.39272
H          5.85764        1.72058       -1.87776
H          5.40339        0.71171       -3.26870
H          4.55039        0.52744       -1.71929
H          2.01852        4.29430       -3.05342
H          3.61372        5.07025       -2.92988
H          2.45333        5.20071       -1.58546
