21
5-METHYL-TRANS-2-HEXENE.gamout	Energy:    -274.7658340
C          0.70293        1.61402        1.64210
C          2.12029        1.02867        1.66365
C          2.58390        0.75745        3.09962
C          3.10339        1.95003        0.90277
C          4.47260        1.36606        0.69020
C          5.62471        1.89105        1.12675
C          6.99097        1.31078        0.90548
H          0.67153        2.59039        2.15724
H          0.34353        1.77081        0.61152
H         -0.01466        0.94879        2.15018
H          2.09347        0.06029        1.12672
H          1.90431        0.05705        3.61278
H          2.60463        1.69158        3.68866
H          3.59760        0.32775        3.12528
H          2.65719        2.17989       -0.08393
H          3.18842        2.91331        1.43834
H          4.50776        0.42440        0.12212
H          5.58639        2.83202        1.69407
H          7.64149        2.01262        0.35300
H          7.49953        1.10655        1.86492
H          6.94818        0.36877        0.33622
