20
6-METHYLQUINOLINE.gamout	Energy:    -440.6514611
C         -3.92208       -5.73882        0.67311
C         -4.86747       -6.89909        0.48283
C         -4.36369       -4.49881        1.09760
C         -2.52892       -5.91175        0.41161
C         -3.46580       -3.40931        1.27537
C         -1.63130       -4.88053        0.57248
C         -2.06972       -3.59816        1.00892
C         -3.87683       -2.12052        1.70972
N         -1.15401       -2.60118        1.15743
C         -2.93486       -1.12516        1.85376
C         -1.57695       -1.42307        1.56149
H         -5.90492       -6.62064        0.72094
H         -4.84523       -7.26477       -0.55817
H         -4.58851       -7.75015        1.12766
H         -5.42655       -4.33894        1.30573
H         -2.17348       -6.89084        0.07528
H         -0.56503       -5.00893        0.37345
H         -4.93392       -1.93524        1.92408
H         -3.21281       -0.12165        2.18551
H         -0.81702       -0.63808        1.67253
