27
9-METHYLANTHRACENE.gamout	Energy:    -578.0546757
C          5.71984        2.30579        3.69930
C          4.26398        2.15182        4.07881
C          3.81260        2.56567        5.35998
C          3.34590        1.56741        3.16725
C          2.41390        2.42916        5.71322
C          4.68901        3.11627        6.35650
C          1.94898        1.43730        3.53060
C          3.73520        1.07339        1.87547
C          1.51967        1.87741        4.78828
C          1.97018        2.85718        7.00686
C          4.22554        3.51186        7.58742
C          1.03066        0.85494        2.59733
C          2.82489        0.51791        1.01002
C          2.84559        3.38451        7.92100
C          1.45017        0.40813        1.37073
H          5.85013        2.45447        2.61911
H          6.31125        1.41530        3.97995
H          6.18259        3.17124        4.19166
H          5.75245        3.21685        6.13837
H          4.78144        1.12962        1.57361
H          0.46480        1.77497        5.05954
H          0.90959        2.74789        7.25097
H          4.91981        3.92865        8.32210
H         -0.01979        0.77143        2.89059
H          3.15512        0.15442        0.03308
H          2.49429        3.70408        8.90565
H          0.73970       -0.03675        0.66904
