13
ACETIC_ANHYDRIDE.gamout	Energy:    -381.2466417
O          3.27206        1.63094        1.59113
C          2.03575        2.09680        1.15498
C          4.46860        2.08552        1.04531
C          1.01767        1.94827        2.25375
O          1.84324        2.50232        0.04940
C          5.53768        1.04003        1.21803
O          4.59662        3.16958        0.56348
H          1.27892        2.61743        3.08935
H          0.02223        2.20253        1.86953
H          1.02625        0.91885        2.64348
H          6.50558        1.44764        0.90133
H          5.58435        0.71415        2.26837
H          5.28715        0.15524        0.61087
