26
ACETYLCHOLINE+1.gamout	Energy:    -480.6773435
O          2.17399       -0.44721       -0.00267
O          4.24311       -1.20188       -0.00287
N         -1.20985        1.06849        0.00023
C          0.28871        0.84341       -0.00072
C         -1.45323        2.55273        0.00092
C         -1.83972        0.47553        1.22611
C         -1.84036        0.47707       -1.22586
C          0.77639       -0.60842       -0.00178
C          3.08768       -1.49179       -0.00111
C          2.57302       -2.91421        0.00151
H          0.69020        1.35204       -0.88731
H          0.69061        1.35006        0.88694
H         -0.99997        2.99020       -0.89675
H         -0.99882        2.98951        0.89821
H         -2.53454        2.73468        0.00169
H         -1.35775        0.89776        2.11650
H         -2.90802        0.72250        1.23039
H         -1.71614       -0.61269        1.21278
H         -2.90876        0.72341       -1.22863
H         -1.35935        0.90075       -2.11602
H         -1.71623       -0.61106       -1.21406
H          0.42952       -1.15264       -0.89833
H          0.42939       -1.15514        0.89289
H          2.98083       -3.42049        0.89005
H          2.99609       -3.42888       -0.87510
H          1.48301       -3.03403       -0.00704
