8
ACETIC_ACID.gamout	Energy:    -228.7978131
C          1.30767       -0.84404        1.45723
C          2.71845       -1.36872        1.57354
O          3.01538       -2.51528        1.79920
H          1.28265        0.23271        1.24817
H          0.78995       -1.39434        0.65670
H          0.77214       -1.05676        2.39514
O          3.64325       -0.40108        1.39579
H          4.51248       -0.82994        1.48799
