6
ACETONITRILE.gamout	Energy:    -132.5739408
C          0.40958        0.89537        0.51959
C          1.86895        0.94260        0.48963
N          3.02645        0.97974        0.46569
H         -0.01263        1.78329        0.02433
H          0.04458       -0.00309       -0.00143
H          0.04755        0.86884        1.55892
