8
ACROLEIN.gamout	Energy:    -191.6586310
C          0.83555        1.16954        1.59390
C          1.77126        2.22899        1.12848
C          2.82066        1.94367        0.34512
O          0.93571       -0.00413        1.31677
H         -0.00329        1.53326        2.24298
H          1.56368        3.25396        1.45523
H          3.51304        2.71569       -0.00135
H          3.00251        0.90971        0.03461
