19
ADIPATE-1.gamout	Energy:    -534.3409575
O          4.20050       -0.92384       -0.02007
O         -4.27865        0.69594       -0.02040
O          3.50635        1.20037        0.04134
O         -3.25287       -1.32424       -0.08313
C          0.68560        0.40684        0.00192
C         -0.68493       -0.28205       -0.01770
C          1.84883       -0.58681       -0.00934
C         -1.88963        0.65757       -0.00820
C          3.22662        0.02620        0.00711
C         -3.29667       -0.07307       -0.04044
H          0.77848        1.05466        0.89202
H          0.78778        1.08452       -0.86456
H         -0.76774       -0.93943       -0.90190
H         -0.77831       -0.97189        0.84003
H          1.79912       -1.24844       -0.89351
H          1.79236       -1.27595        0.85337
H         -1.87336        1.30818        0.88750
H         -1.85506        1.34974       -0.87194
H          5.03907       -0.43240       -0.00362
