24
ALFA_D-FRUCTOPYRANOSE.gamout	Energy:    -686.3027977
C         -2.12458        2.42522       -1.93542
O         -2.38560        1.02309       -1.90064
C         -1.28678        2.81968       -3.15015
C         -1.40592        2.83691       -0.64043
H         -3.10773        2.92278       -1.98329
O          0.02823        2.26851       -3.06184
H         -1.25479        3.91484       -3.25019
H         -1.72821        2.38897       -4.06190
C          0.02667        2.29860       -0.66665
O         -2.06923        2.34161        0.50838
H         -1.37395        3.93319       -0.56239
H         -0.04183        1.19061       -0.70131
O          0.77407        2.69759        0.46189
C          0.80578        2.66399       -1.94366
O          1.96424        1.87414       -2.02521
C          1.28289        4.12635       -2.03111
H         -1.59742        0.57578       -2.24497
H         -2.38136        1.45440        0.26043
H          0.19191        2.57467        1.22801
O          0.21461        5.05457       -1.95160
H          1.83175        4.20627       -2.98771
H          1.99889        4.27344       -1.20310
H          0.58425        5.94388       -1.88887
H          2.29951        1.78029       -1.12125
