81
ALPHA-TOCOPHEROL.gamout	Energy:   -1283.8881460
O         -2.68906       -3.05921        3.08724
O         -2.59893       -7.50925       -0.18146
C         -1.54293       -2.50389        3.75667
C         -0.85607       -1.42602        2.87076
C         -0.60929       -3.63818        4.20299
C         -0.68009       -1.69137        1.36685
C          0.07918       -0.62077       -0.88598
C          0.04648       -0.54016        0.65219
C         -0.23147       -4.60649        3.08223
C          0.76975        0.60489       -1.52251
C         -2.12799       -1.81310        4.99223
C         -1.43123       -4.96963        2.23497
C          0.11310        1.97181       -1.27074
C         -2.58509       -4.17330        2.29275
C          0.76057        3.11023       -2.07648
C          0.27330        4.53429       -1.74538
C          0.73955       -1.91112       -1.38585
C          1.07570        5.62268       -2.49225
C         -1.41088       -6.09046        1.37862
C         -3.73161       -4.48804        1.53375
C          2.57095        5.73052       -2.14926
C         -3.72236       -5.62451        0.71207
C         -1.22562        4.71055       -2.02199
C         -2.55983       -6.41267        0.64281
C          3.28008        6.90606       -2.84234
C          4.75057        7.13672       -2.44250
C         -0.17643       -6.95020        1.23894
C         -4.95445       -3.60663        1.61128
C         -4.92949       -6.01673       -0.10155
C          5.28365        8.43435       -3.06106
C          5.65811        5.95946       -2.81259
H         -1.44500       -0.49853        2.97337
H          0.12593       -1.20664        3.32809
H          0.29268       -3.21028        4.66365
H         -1.13307       -4.20143        4.99317
H         -1.67599       -1.83029        0.91224
H         -0.13561       -2.63185        1.19665
H         -0.97167       -0.62369       -1.23873
H          1.08639       -0.47132        1.02921
H         -0.43776        0.40853        0.93985
H          0.19891       -5.51375        3.53265
H          0.57299       -4.17785        2.45488
H          0.81707        0.43485       -2.61324
H          1.82420        0.63989       -1.18418
H         -2.59612       -2.54811        5.66270
H         -2.89897       -1.09259        4.68323
H         -1.35119       -1.26965        5.55479
H         -0.96315        1.90168       -1.51080
H          0.16700        2.22209       -0.19574
H          0.61118        2.92442       -3.15823
H          1.85055        3.06490       -1.91301
H          0.43368        4.69561       -0.66023
H          0.75044       -1.94915       -2.48663
H          1.78739       -1.98091       -1.04227
H          0.21143       -2.80873       -1.03225
H          0.59842        6.59574       -2.27780
H          0.95946        5.46937       -3.58316
H          2.68230        5.83901       -1.05338
H          3.08144        4.78903       -2.41291
H         -1.55914        5.72676       -1.75852
H         -1.45420        4.55339       -3.09113
H         -1.83834        4.00503       -1.44195
H          2.71814        7.83355       -2.62866
H          3.22894        6.77230       -3.94080
H          4.78188        7.25453       -1.34145
H         -0.06765       -7.32817        0.20864
H         -0.18304       -7.82455        1.91654
H          0.74334       -6.38885        1.44736
H         -4.69081       -2.60699        1.97703
H         -5.71103       -4.01667        2.30611
H         -5.43774       -3.50438        0.62905
H         -4.82649       -7.04611       -0.46333
H         -5.05242       -5.36505       -0.98595
H         -5.85925       -5.94308        0.48370
H          4.67111        9.30347       -2.77126
H          6.31902        8.63391       -2.74150
H          5.28150        8.37985       -4.16411
H          6.69667        6.14638       -2.49533
H          5.66940        5.79668       -3.90507
H          5.33458        5.02024       -2.33894
H         -1.78978       -8.02138       -0.07147
