34
AMOBARBITAL.gamout	Energy:    -764.2562407
O          0.17307       -1.57374       -2.05120
O          0.39237        1.15548        1.83035
O          3.26296       -2.30376        1.18843
N          1.77558       -1.83474       -0.48170
N          1.83165       -0.54535        1.46052
C          0.27723        0.14865       -0.35926
C         -1.26349        0.27274       -0.36721
C         -1.99875       -0.77005        0.48381
C          0.94940        1.33319       -1.15247
C         -3.53415       -0.74044        0.33761
C          0.69582       -1.15879       -1.04029
C          0.80029        0.30162        1.07528
C          0.49851        1.52887       -2.60013
C         -4.14878        0.58214        0.81738
C         -4.16706       -1.93176        1.06924
C          2.36841       -1.61684        0.75649
H         -1.50935        1.28819       -0.02265
H         -1.59660        0.18016       -1.41140
H         -1.65123       -1.78007        0.20191
H         -1.74298       -0.63247        1.55009
H          2.04358        1.18721       -1.12138
H          0.74237        2.24328       -0.56676
H         -3.76206       -0.84914       -0.74028
H          0.61979        0.61645       -3.20199
H         -0.55712        1.83336       -2.66269
H          1.09847        2.32805       -3.06414
H         -3.78043        1.44683        0.24340
H         -3.91439        0.76293        1.88099
H         -5.24635        0.56602        0.71580
H         -3.97614       -1.87577        2.15520
H         -5.25970       -1.95469        0.92537
H         -3.76094       -2.89091        0.70781
H          2.09528       -2.66538       -0.97603
H          2.21852       -0.39665        2.39040
