23
AMPHETAMINE.gamout	Energy:    -404.9778207
N         -3.59037       -0.50991        0.15898
C         -2.25386       -0.18996       -0.34576
C         -1.25015       -0.35716        0.81953
C          0.20228       -0.17065        0.44292
C         -2.26513        1.22952       -0.91277
C          0.90054       -1.17975       -0.24306
C          0.88906        1.01649        0.74645
C          2.23490       -1.00725       -0.62028
C          2.22584        1.19318        0.37485
C          2.90351        0.18250       -0.31308
H         -1.92668       -0.87520       -1.16024
H         -1.38684       -1.37210        1.23460
H         -1.53909        0.34867        1.61521
H         -1.27454        1.51902       -1.29448
H         -2.57128        1.94860       -0.13533
H         -2.98209        1.30852       -1.74761
H          0.39330       -2.12181       -0.47466
H          0.36990        1.81338        1.28740
H         -3.63573       -1.48516        0.45797
H         -4.28321       -0.40666       -0.58342
H          2.75727       -1.80735       -1.15248
H          2.74101        2.12445        0.62695
H          3.94890        0.31768       -0.60348
