23
ANETHOLE.gamout	Energy:    -462.8631058
C          1.84750        2.75868        1.84849
C          2.37727        1.86323        2.70045
C          3.56599        2.01459        3.55463
C          0.62546        2.52427        1.01200
C          4.38417        3.15893        3.56231
C          3.92840        0.96314        4.42418
C          5.50545        3.25864        4.38822
C          5.04066        1.04530        5.25410
C          5.84442        2.19747        5.24490
O          6.91072        2.19838        6.08588
C          7.77491        3.31083        6.10335
H          2.32235        3.74152        1.73481
H          1.87630        0.89026        2.79023
H         -0.16674        3.26055        1.24023
H          0.84657        2.63279       -0.06549
H          0.20859        1.51748        1.17301
H          4.14690        4.00201        2.90880
H          3.31547        0.05700        4.44504
H          6.10836        4.16699        4.35675
H          5.31191        0.22638        5.92396
H          8.24098        3.48738        5.11645
H          7.25524        4.23366        6.42088
H          8.56547        3.08291        6.83179
