26
ANTIPYRINE.gamout	Energy:    -610.2920420
O          0.41272        6.73484        0.03064
N          2.36388        5.44211       -0.06474
N          3.73805        5.70227        0.06200
C          3.85804        7.03065        0.45659
C          1.92801        4.37954       -0.89287
C          1.61884        6.64288        0.15370
C          2.63690        7.63141        0.48780
C          4.50614        4.66713        0.75261
C          5.19428        7.60188        0.80959
C          2.75922        3.85693       -1.89918
C          0.63648        3.85428       -0.71472
C          2.30929        2.80488       -2.70057
C          0.19376        2.81715       -1.53823
C          1.02548        2.28027       -2.52663
H          2.41797        8.67552        0.69752
H          4.37176        3.70536        0.24037
H          4.19216        4.55658        1.80748
H          5.57182        4.92856        0.71351
H          5.95584        7.34139        0.05690
H          5.12793        8.69653        0.87164
H          5.55040        7.22970        1.78563
H          3.74800        4.29012       -2.05971
H         -0.01123        4.27611        0.05231
H          2.96488        2.40897       -3.48105
H         -0.81614        2.42169       -1.39968
H          0.67441        1.46104       -3.15917
