7
ASF6-1.gamout	Energy:   -2834.0716121
F         -5.37303        1.72402        0.23805
As        -3.63043        1.65714       -0.00000
F         -3.67341       -0.09241        0.18420
F         -3.87427        1.47952       -1.73356
F         -3.38697        1.83396        1.73371
F         -1.88818        1.58951       -0.23819
F         -3.58820        3.40686       -0.18421
