21
ASPIRIN.gamout	Energy:    -647.8546139
C          0.82093        1.19078        1.24981
C          1.57999        0.03648        0.99556
C         -0.55870        1.05321        1.57179
O          1.29183        2.46968        1.21720
C          0.99410       -1.22982        1.05658
C         -1.11645       -0.23674        1.62487
C         -1.43966        2.23358        1.85665
C         -0.35644       -1.37632        1.37124
O         -1.13181        3.39772        1.85525
O         -2.71207        1.84410        2.13785
C          2.50985        3.06509        0.96857
O          2.54681        4.25861        1.03289
C          3.72122        2.22458        0.63484
H          2.63296        0.10591        0.74681
H          1.61260       -2.10822        0.85337
H         -2.17325       -0.32723        1.87312
H         -0.81416       -2.36686        1.41881
H         -3.20234        2.66603        2.30632
H          3.96694        1.53130        1.45330
H          3.56347        1.63986       -0.28372
H          4.56130        2.91283        0.48272
