29
AZELAIC_ACID.gamout	Energy:    -652.6837562
C          1.49973        1.28479        3.01121
C          2.55689        1.90469        2.08300
C          3.98423        1.74135        2.61243
C          0.08329        1.44314        2.50615
C          5.05033        2.35530        1.69959
O         -0.09197        0.85383        1.30094
O         -0.80996        2.01988        3.07500
C          6.47906        2.19131        2.22682
C          7.54389        2.80103        1.31157
C          8.97139        2.62770        1.85230
C         10.00408        3.19770        0.90434
O         10.75286        4.16760        1.47054
O         10.15418        2.85202       -0.24212
H          1.53591        1.73747        4.01283
H          1.69632        0.20344        3.12233
H          2.47145        1.44561        1.08379
H          2.33399        2.97879        1.94946
H          4.05756        2.19525        3.61830
H          4.19975        0.66533        2.75272
H          4.97616        1.90073        0.69430
H          4.83424        3.43092        1.55836
H         -1.01925        1.00898        1.04940
H          6.69616        1.11580        2.36897
H          6.55308        2.64708        3.23186
H          7.33802        3.87768        1.17021
H          7.49067        2.34395        0.30899
H          9.19562        1.55129        1.95316
H          9.08339        3.08709        2.84555
H         11.37689        4.47068        0.78682
