17
BA+1.gamout	Energy:    -213.8597151
C          2.10353        1.64342        1.49807
C          3.51924        1.31640        1.99913
C          4.58715        1.90388        1.08974
C          1.01106        1.06161        2.39571
N          5.98302        1.55287        1.58477
H          1.98903        2.73979        1.43164
H          1.98899        1.25728        0.46994
H          3.64629        1.70951        3.02478
H          3.64400        0.21901        2.05623
H          4.52143        1.51542        0.06238
H          4.54558        3.00247        1.04832
H          1.07047        1.46553        3.41941
H          0.01567        1.30797        1.99867
H          1.08159       -0.03659        2.45802
H          6.72082        1.94258        0.98102
H          6.14189        1.91117        2.53839
H          6.12085        0.53189        1.62360
