25
BARBITAL.gamout	Energy:    -646.4903555
O         -0.48611       -2.98938       -0.19080
O          0.62693        1.65504       -0.29519
O         -3.30918        0.18011        1.42486
N         -1.86414       -1.38521        0.60322
N         -1.31994        0.88439        0.55159
C          0.33728       -0.73451       -0.37625
C          1.66658       -1.03672        0.37711
C          0.58669       -0.82996       -1.91056
C         -0.68429       -1.81154        0.00875
C         -0.08091        0.70400       -0.04875
C          1.58160       -0.98113        1.90275
C         -0.63494       -0.55782       -2.78893
C         -2.25238       -0.08459        0.90326
H          2.41012       -0.31002        0.01495
H          1.99308       -2.03731        0.05448
H          0.97380       -1.84177       -2.10680
H          1.38867       -0.11399       -2.14788
H          1.28632        0.01721        2.26531
H          0.86681       -1.71792        2.30518
H          2.56371       -1.20867        2.34644
H         -1.44925       -1.27627       -2.59850
H         -1.03347        0.45944       -2.64086
H         -0.36681       -0.64801       -3.85329
H         -2.53484       -2.10891        0.85403
H         -1.58759        1.84326        0.76474
