14
BENZALDEHYDE.gamout	Energy:    -345.1180896
O          5.48210        0.41355        0.35605
C          5.11667        1.56405        0.43618
C          3.70180        2.00884        0.36700
C          2.67513        1.06343        0.19699
C          3.38467        3.37237        0.47081
C          1.34773        1.48123        0.13196
C          2.05349        3.79058        0.40546
C          1.03650        2.84479        0.23613
H          5.85801        2.39567        0.57331
H          2.94794        0.00827        0.11875
H          4.18782        4.10442        0.60305
H          0.54791        0.74779       -0.00028
H          1.80656        4.85230        0.48631
H         -0.00618        3.16998        0.18466
