31
BENZYLDIMETHYLCHOLINE+1.gamout	Energy:    -558.9686050
O          3.05065        2.43993       -0.27448
N          1.41162       -0.87108        0.05578
C          0.13270       -1.16181        0.88328
C          1.75853        0.59312        0.15954
C          1.19954       -1.26459       -1.37126
C          2.50571       -1.70990        0.63909
C         -1.12310       -0.46394        0.44685
C          3.05350        1.05870       -0.51246
C         -1.48060        0.77867        0.99455
C         -1.99413       -1.07660       -0.46894
C         -2.66339        1.40955        0.60973
C         -3.17800       -0.44689       -0.85261
C         -3.51008        0.80107       -0.31986
H          0.40096       -0.89433        1.91330
H          0.01745       -2.25167        0.82947
H          0.92210        1.15777       -0.26928
H          1.81603        0.83552        1.22900
H          2.13799       -1.14049       -1.92147
H          0.88966       -2.31625       -1.40702
H          0.41923       -0.63112       -1.80725
H          2.19033       -2.75995        0.63092
H          3.41626       -1.59839        0.04091
H          2.69400       -1.38837        1.67033
H          3.93618        0.56150       -0.06419
H          3.05222        0.82155       -1.59505
H         -0.84190        1.25243        1.74397
H         -1.75907       -2.06599       -0.87062
H         -2.93239        2.37193        1.04900
H         -3.85041       -0.93824       -1.55803
H          3.84955        2.84401       -0.63930
H         -4.43836        1.29358       -0.61740
