15
BENZOIC_ACID.gamout	Energy:    -420.2856389
C          6.28884        1.86262       -0.72283
C          6.83940        0.64130       -0.30189
C          4.90446        2.01729       -0.79678
C          5.99237       -0.42420        0.04447
C          8.32510        0.52647       -0.23957
C          4.06255        0.95353       -0.45084
C          4.60700       -0.26509       -0.03098
O          8.74671       -0.68805        0.17704
O          9.09823        1.41148       -0.52588
H          6.96660        2.67701       -0.98711
H          4.47842        2.96894       -1.12488
H          6.42533       -1.37082        0.37108
H          2.97739        1.07496       -0.50879
H          3.94875       -1.09496        0.23901
H          9.71841       -0.65225        0.18027
