16
BENZAMIDE.gamout	Energy:    -400.4300032
O          2.37101       -1.12161        0.00295
N          2.48905        1.13383        0.00083
C          0.28855        0.04481        0.00058
C         -0.43888        1.24650       -0.00119
C         -0.41347       -1.17109        0.00149
C         -1.83629        1.23165       -0.00199
C         -1.80884       -1.18785        0.00070
C         -2.52447        0.01429       -0.00102
C          1.79805       -0.04395        0.00155
H          0.06754        2.21545       -0.00190
H          0.16797       -2.09502        0.00281
H         -2.38886        2.17475       -0.00332
H         -2.34101       -2.14272        0.00142
H         -3.61769        0.00388       -0.00170
H          2.05069        2.04259       -0.00039
H          3.50015        1.07961        0.00140
