24
BETA_D-FRUCTOFURANOSE.gamout	Energy:    -686.3019600
O          3.05074       -1.04742        0.31245
C          3.99726       -1.69742        1.13179
C          3.33126       -1.81906        2.53836
C          1.83700       -1.77756        2.21443
C          1.79550       -0.87063        0.96874
H          0.99485       -1.20701        0.28484
C          1.56282        0.60545        1.27742
H          1.25773       -1.34272        3.04631
O          1.42964       -3.10523        1.92266
H          3.59742       -2.77815        3.01968
O          3.68552       -0.71880        3.33713
O          5.15565       -0.90013        1.21502
C          4.35493       -3.03559        0.48265
H          5.90255       -1.52513        1.23413
H          4.49364       -2.84752       -0.59829
H          3.51405       -3.73561        0.62250
O          5.55195       -3.48873        1.10039
H          1.76635        1.18600        0.35609
H          2.28143        0.92380        2.05315
O          0.22002        0.73287        1.70850
H          0.09558        1.61879        2.06901
H          5.86205       -4.28758        0.65728
H          0.50641       -3.08200        1.63924
H          4.51518       -0.38297        2.94977
