24
BETA-D-FRUCTOFURANOSE.gamout	Energy:    -686.2870201
O         -0.50506        3.20157        4.86468
C         -1.15042        4.14829        4.01980
C         -0.12419        2.04990        4.14635
C         -1.24867        3.48895        2.63379
C         -0.07701        2.50545        2.65927
C          1.22313        1.55430        4.67258
C         -2.49833        4.59383        4.58003
H         -0.50910        5.05234        3.93373
O         -3.04444        5.63269        3.79719
H         -2.36234        4.98296        5.60162
H         -3.16336        3.70877        4.65032
H         -2.99011        5.37213        2.86536
O          1.08493        1.10428        5.99088
H          1.55990        0.74322        3.98738
H          1.95029        2.38748        4.58320
H          1.95849        0.87481        6.32924
O         -1.11813        1.06830        4.27506
H         -1.15504        0.60631        3.42032
O         -1.31641        4.39684        1.55865
H         -2.16612        2.88190        2.57036
H         -0.59552        5.03728        1.64676
O         -0.28483        1.43996        1.75519
H          0.56417        1.03516        1.53545
H          0.86764        3.04240        2.44697
