5
BF4-1.gamout	Energy:    -424.0366033
B          0.00026        0.00000        0.00019
F         -0.00033       -1.15046       -0.81527
F         -0.00033        1.15046       -0.81526
F         -1.15091        0.00000        0.81480
F          1.15131        0.00000        0.81555
