19
BHEA+1.gamout	Energy:    -364.1007105
O         -8.74314       -0.09581       -0.07097
C         -7.67504       -0.98026       -0.21544
C         -6.43505       -0.10626       -0.03180
H         -7.64674       -1.46655       -1.21478
H         -7.67868       -1.79016        0.54605
N         -5.15673       -0.88702       -0.18591
H         -6.43013        0.34838        0.96871
H         -6.42657        0.70070       -0.77828
C         -3.89495       -0.08446       -0.01202
C         -2.63795       -0.93778       -0.17355
H         -3.92360        0.37126        0.98763
H         -3.90465        0.72132       -0.75969
O         -1.58775       -0.03433       -0.01701
H         -2.64291       -1.42731       -1.17177
H         -2.63196       -1.74522        0.59039
H         -0.73596       -0.48707       -0.08809
H         -9.58561       -0.56247       -0.15988
H         -5.14566       -1.33465       -1.11401
H         -5.15543       -1.66694        0.48790
