33
BISPHENOL_A.gamout	Energy:    -730.7006404
C          6.97174        3.80953       -2.12303
C          7.23546        3.06793       -0.79109
C          6.96827        4.06978        0.35696
C          6.28537        1.86734       -0.59507
C          8.69920        2.57863       -0.80734
C          6.49442        0.98058        0.48058
C          5.17237        1.62284       -1.41022
C          9.07732        1.53747       -1.67880
C          9.71037        3.15001       -0.02348
C          4.30439        0.54995       -1.16877
C          4.52958       -0.31319       -0.09188
C          5.64046       -0.08773        0.73637
O          3.72415       -1.37044        0.19441
C         10.39196        1.09069       -1.77107
C         11.38991        1.67835       -0.97766
C         11.03794        2.70995       -0.10172
O         12.66017        1.20810       -1.09819
H          7.08460        3.14683       -2.99432
H          7.69424        4.63258       -2.23565
H          5.96054        4.24655       -2.15039
H          7.19340        3.63588        1.34290
H          7.56426        4.98941        0.24067
H          5.90597        4.35865        0.35563
H          7.36091        1.12289        1.13229
H          4.95513        2.26982       -2.26157
H          8.31527        1.05288       -2.29506
H          9.48173        3.95815        0.67282
H          3.44545        0.38708       -1.82911
H          5.81836       -0.76744        1.57292
H          3.00668       -1.40972       -0.45167
H         10.66932        0.28045       -2.44910
H         11.80360        3.17602        0.52799
H         13.23999        1.69346       -0.49662
