27
BMPY+1.gamout	Energy:    -444.6175872
C         -5.57433       -1.64540        0.01395
C         -4.56805       -0.49542        0.03168
H         -5.45575       -2.29967        0.89331
H         -5.46200       -2.26970       -0.88796
H         -6.60458       -1.26032        0.02412
C         -3.10841       -0.97916        0.01432
H         -4.73136        0.12899        0.92827
H         -4.73926        0.16484       -0.83698
C         -2.15261        0.20458        0.05183
H         -2.94104       -1.58181       -0.89601
H         -2.93760       -1.63946        0.88295
N         -0.68323       -0.11263        0.03518
H         -2.32026        0.80221        0.96166
H         -2.32678        0.86436       -0.81260
C          0.17291        0.93743        0.06703
C         -0.21725       -1.37718       -0.00976
C          1.53940        0.72950        0.05620
H         -0.27456        1.93165        0.10095
C          2.03398       -0.57680        0.00835
H          2.20966        1.58942        0.08403
C          1.15145       -1.66404       -0.02736
H          3.11243       -0.75224       -0.00174
H         -0.96281       -2.16979       -0.03348
C          1.62158       -3.09169       -0.08495
H          2.71837       -3.15024       -0.08980
H          1.25041       -3.59303       -0.99336
H          1.25348       -3.66440        0.78157
