1
BR-1.gamout	Energy:   -2573.7837448
Br        -7.66140        3.94500       -0.00000
