6
BROMOCHLOROACETONITRILE.gamout	Energy:   -3165.0839383
Br        -1.46190        1.47297       -0.20477
Cl        -1.11148       -1.63161       -0.20692
N          2.07694        0.15375       -0.16319
C         -0.45662       -0.09510        0.43314
C          0.95167        0.04570        0.09099
H         -0.58911       -0.10520        1.52137
