12
BROMOPENTAFLUOROBENZENE.gamout	Energy:   -3300.6599915
C          6.33139        1.85818       -0.67036
C          6.86685        0.61054       -0.33693
C          4.94510        2.03286       -0.71893
F          7.13836        2.87556       -0.94041
F          4.43746        3.21879       -1.03586
C          4.09689        0.95861       -0.43375
C          4.62442       -0.29464       -0.09916
F          2.78501        1.15115       -0.48694
C          6.01414       -0.46028       -0.05287
Br         3.47917       -1.74048        0.28407
F          6.54734       -1.63422        0.26056
F          8.18417        0.44556       -0.29081
