5
BROMOMETHANE.gamout	Energy:   -2613.5793053
H          0.01117        0.98381       -0.00684
C          1.10709        0.99534        0.01457
H          1.48448        2.02437       -0.00749
H          1.48381        0.46290        0.89574
Br         1.75825        0.07395       -1.58089
