12
BROMOBENZENE.gamout	Energy:   -2805.0618167
Br        -1.63574       -0.00000       -0.00015
C          0.27428        0.00000        0.00004
C          0.96078        1.21789        0.00047
C          2.35972        1.20941        0.00021
C          3.06174       -0.00000       -0.00060
C          2.35972       -1.20941       -0.00089
C          0.96078       -1.21789        0.00185
H          0.40986        2.16041        0.00076
H          2.90073        2.15951        0.00068
H          4.15469       -0.00000       -0.00108
H          2.90072       -2.15952       -0.00170
H          0.40986       -2.16040        0.00153
