5
BROMODICHLOROMETHANE.gamout	Energy:   -3532.3679821
Br        -1.82084        0.00164        0.14451
Cl         0.89872        1.47084        0.15832
Cl         0.89604       -1.47252        0.15812
C          0.06571       -0.00004       -0.39185
H          0.06636        0.00003       -1.48494
