18
BUSO4-1.gamout	Energy:    -856.1691520
O          0.85022       -2.14748       -1.51798
O          1.78878       -0.39287        0.00210
S          1.87058       -1.77740       -0.52452
O          2.17915       -2.80210        0.50123
O          3.28816       -1.76429       -1.52781
C          4.47049       -1.44243       -0.84493
C          5.61116       -1.37399       -1.85554
C          6.96407       -1.02823       -1.23039
C          8.10855       -0.94199       -2.24305
H          4.68970       -2.20336       -0.06727
H          4.36571       -0.46989       -0.32116
H          5.34623       -0.62695       -2.62627
H          5.67134       -2.34547       -2.38001
H          7.21264       -1.78065       -0.45878
H          6.88016       -0.06591       -0.69173
H          8.24737       -1.89857       -2.77688
H          9.06665       -0.69102       -1.75727
H          7.91055       -0.16901       -3.00614
