13
BUTAN-2-ONE.gamout	Energy:    -232.1534429
C          1.96867        2.04372        2.67237
C          0.48176        2.33598        2.83918
C          2.34546        1.54178        1.28207
C          3.81383        1.22997        1.04866
O          1.51797        1.39855        0.40906
H          2.58250        2.94053        2.87965
H          2.31634        1.28973        3.40377
H         -0.11961        1.43395        2.65060
H          0.26231        2.69446        3.85692
H          0.14810        3.10155        2.12234
H          3.96019        0.87945        0.01833
H          4.43189        2.12619        1.22673
H          4.16146        0.45768        1.75560
