31
BUTOBARBITAL.gamout	Energy:    -725.0008690
O          0.06737       -0.91645       -2.25297
O          0.21124        1.39175        1.89607
O          3.07490       -2.00257        0.97133
N          1.58138       -1.40044       -0.64867
N          1.69818       -0.22104        1.35895
C          0.14375        0.61976       -0.39305
C         -1.39499        0.76692       -0.41616
C          0.84701        1.80918       -1.15165
C         -2.17149       -0.42221        0.15939
C          0.55498       -0.63123       -1.18254
C          0.64639        0.63689        1.05432
C         -3.68851       -0.19937        0.14891
C          0.47815        3.22083       -0.69569
C          2.19553       -1.26713        0.59083
C         -4.48194       -1.38812        0.69395
H         -1.69713        0.93385       -1.46204
H         -1.64882        1.67131        0.15539
H          0.59735        1.67883       -2.21702
H          1.93911        1.66603       -1.07109
H         -1.94114       -1.33470       -0.41840
H         -1.84688       -0.61527        1.19858
H         -4.01283        0.02110       -0.88454
H         -3.92654        0.70582        0.73694
H         -0.57886        3.45243       -0.89526
H          0.66019        3.37263        0.37837
H          1.08407        3.95343       -1.25269
H          1.89270       -2.19316       -1.20643
H          2.07533       -0.15843        2.30254
H         -4.20465       -1.60969        1.73854
H         -4.29505       -2.29970        0.10152
H         -5.56630       -1.19364        0.67220
