19
BUTYL_VINYL_ETHER.gamout	Energy:    -310.6265651
C          3.02570        1.32621        2.87381
C          4.47633        1.03908        3.25527
O          5.35141        1.05359        2.13764
C          2.06431        1.24435        4.06303
C          5.77455        2.26220        1.69694
C          0.60852        1.52473        3.68638
C          6.35451        2.44558        0.50634
H          2.96670        2.32851        2.41153
H          2.72493        0.60771        2.09070
H          4.82584        1.76105        4.02036
H          4.56483        0.03120        3.69192
H          2.13777        0.24119        4.52243
H          2.38500        1.95705        4.84538
H          5.63979        3.09321        2.40569
H         -0.05518        1.45712        4.56333
H          0.24327        0.80442        2.93515
H          0.49207        2.53450        3.25778
H          6.48342        1.61625       -0.19321
H          6.72155        3.43449        0.22901
