5
CARBON_TETRACHLORIDE.gamout	Energy:   -1878.0286716
C          0.00000        0.00000        0.00000
Cl         1.03231        1.03231        1.03231
Cl        -1.03231       -1.03231        1.03231
Cl        -1.03231        1.03231       -1.03231
Cl         1.03231       -1.03231       -1.03231
