6
CARBONIC_ACID.gamout	Energy:    -264.6881409
O         -0.87383       -1.10181        0.43374
O         -1.14055        1.05782        0.48433
O          0.81893        0.22065       -0.27010
C         -0.29144        0.07309        0.17327
H         -0.22911       -1.78614        0.19605
H         -0.68302        1.88863        0.28215
