5
CHLOROFORM.gamout	Energy:   -1418.6403499
C          0.00000       -0.00000        0.45338
H         -0.00000        0.00021        1.54729
Cl         0.00000        1.70108       -0.08360
Cl         1.47317       -0.85054       -0.08361
Cl        -1.47317       -0.85054       -0.08361
