5
CHLORODIBROMOMETHANE.gamout	Energy:   -5646.0957509
Br         1.61609       -0.89097        0.16549
Br        -1.61599       -0.89117        0.16529
Cl        -0.00011        1.73980        0.15340
C          0.00003        0.05331       -0.39475
H          0.00010        0.04700       -1.48735
