5
CHLOROMETHANE.gamout	Energy:    -499.8484783
H         -0.00347        1.19313        1.62563
C          0.65332        0.98748        0.77037
H          0.50806        1.74919       -0.00667
H          0.43921       -0.00942        0.36357
Cl         2.36070        1.03695        1.32262
