8
CHLOROETHANE.gamout	Energy:    -539.1092047
C          2.37554        0.98240        1.40027
C          1.31188        1.97460        0.97025
Cl        -0.02513        2.09568        2.18894
H          2.83516        1.28217        2.35460
H          3.16735        0.93300        0.63348
H          1.95001       -0.02508        1.52496
H          0.83984        1.68462        0.02068
H          1.71964        2.98915        0.85675
