19
CHLOROXYLENOL.gamout	Energy:    -844.9893542
Cl         2.82201        0.00745        0.00001
O         -3.07896        0.02513       -0.00019
C          0.37184        1.22174       -0.00018
C          0.39326       -1.24179        0.00007
C          1.05888       -0.00623       -0.00002
C         -1.02650        1.19089       -0.00020
C         -1.00942       -1.22854       -0.00000
C         -1.72031       -0.02400       -0.00011
C          1.10851        2.53461       -0.00030
C          1.14820       -2.54463        0.00021
H         -1.60200        2.11868       -0.00030
H         -1.55120       -2.17983        0.00009
H          1.76207        2.62440        0.88285
H          1.76211        2.62414       -0.88344
H          0.40563        3.37984       -0.00043
H          1.80305       -2.62481       -0.88280
H          1.80298       -2.62459        0.88329
H          0.45955       -3.40187        0.00030
H         -3.43521       -0.87294       -0.00006
