8
CHLOROPENTAFLUOROETHANE.gamout	Energy:   -1034.7631149
C         20.98816       18.99605       -0.00018
C         22.53997       18.98807        0.00026
Cl        23.17154       17.32862       -0.00007
F         22.96740       19.63843        1.08531
F         22.96727       19.63884       -1.08445
F         20.55912       20.25858       -0.00003
F         20.52289       18.38450       -1.08549
F         20.52252       18.38417        1.08462
