6
CHLOROTRIFLUOROETHYLENE.gamout	Energy:    -835.2443943
C          9.00644       18.00361       -0.00000
C         10.34287       18.01882       -0.00000
Cl        11.27500       19.46078        0.00000
F         11.03046       16.88281       -0.00000
F          8.29993       16.89449        0.00000
F          8.26178       19.08496       -0.00000
