21
CHOLINE+1.gamout	Energy:    -328.2252023
C         -7.28779        0.08338        1.44969
N         -5.90676        0.25726        0.88868
H         -7.68855        1.05923        1.74353
H         -7.23467       -0.57164        2.32831
H         -7.92995       -0.37145        0.68518
C         -5.02262        0.90304        1.91532
C         -5.94006        1.07191       -0.38657
H         -4.96525        0.24805        2.79330
H         -5.44278        1.87155        2.20698
H         -4.02222        1.04255        1.48730
H         -4.91073        1.11563       -0.76766
C         -6.48747        2.49806       -0.29309
H         -6.54324        0.50998       -1.11237
C         -5.34514       -1.09758        0.56015
H         -5.31497       -1.70018        1.47598
H         -4.33262       -0.97662        0.15697
H         -5.98718       -1.58129       -0.18568
H         -5.89782        3.10394        0.42244
H         -7.53941        2.49835        0.05395
O         -6.36461        2.96232       -1.60711
H         -6.69487        3.86870       -1.67489
