27
CIS,CIS-1,2,3-TRIMETHYLCYCLOHEXANE.gamout	Energy:    -353.2871690
C          4.10974        1.61402        1.91043
C          3.59149        2.59319        0.83428
C          2.39703        3.42494        1.33977
C          3.78842        2.11304        3.32561
C          2.24470        2.19823        3.56238
C          4.55349        1.32902        4.39759
C          1.47194        2.61504        2.26011
C          1.64191        0.95820        4.23537
H          3.66734        0.61121        1.77470
H          5.19807        1.47738        1.80170
H          4.39910        3.28000        0.52987
H          3.31314        2.03521       -0.07455
H          1.82669        3.82556        0.48485
H          2.76659        4.30493        1.89363
H          4.16539        3.15010        3.38033
H          2.10124        3.03076        4.27337
H          4.33165        1.70078        5.41157
H          4.32107        0.25120        4.38039
H          5.64036        1.42951        4.24134
H          2.07775        0.78643        5.23056
H          0.55624        1.08247        4.37814
H          1.79187        0.03873        3.64620
C          0.80261        1.47122        1.48255
H          0.65353        3.28329        2.57962
H          1.51633        0.70887        1.13275
H          0.03906        0.95274        2.08023
H          0.29434        1.87545        0.59125
