27
CIS,CIS-1,3,5-TRIMETHYLCYCLOHEXANE.gamout	Energy:    -353.3087962
C          2.10526        3.62292        2.72859
C          0.82073        4.38168        2.38030
C          3.30651        4.56892        2.87561
C          2.42180        2.52444        1.70163
C          4.61365        3.83885        3.21318
C          3.71248        1.75572        2.02003
C          5.79327        4.80869        3.33833
C          4.88425        2.73626        2.17958
C          4.01176        0.67606        0.97462
H          1.94968        3.12776        3.70763
H          0.58214        5.14208        3.14207
H         -0.04218        3.69923        2.30785
H          0.91433        4.90153        1.41043
H          3.44087        5.12644        1.92730
H          3.09216        5.32473        3.65120
H          1.57482        1.81890        1.63607
H          2.51731        2.98736        0.69918
H          4.47632        3.34656        4.19648
H          3.56568        1.25017        2.99507
H          5.98252        5.33356        2.38530
H          6.72036        4.28082        3.61547
H          5.60146        5.57494        4.10712
H          5.09283        3.20748        1.19852
H          5.79824        2.18418        2.45820
H          4.92180        0.11126        1.23423
H          4.16897        1.11924       -0.02462
H          3.18207       -0.04476        0.89013
