24
CIS-4-OCTENE.gamout	Energy:    -314.0186611
C          2.64228        3.34041        1.85479
C          3.98155        3.30312        1.77910
C          4.93049        2.31424        2.40013
C          1.71761        2.40408        2.58369
C          5.99889        2.96721        3.29696
C          0.64070        1.77303        1.68176
C          5.44460        3.61788        4.56453
C          1.19125        0.81392        0.62572
H          2.13448        4.15568        1.32105
H          4.47118        4.09575        1.19668
H          5.45142        1.77378        1.58755
H          4.38606        1.54883        2.97779
H          2.28251        1.60365        3.09010
H          1.20618        2.97094        3.38423
H          6.55451        3.71922        2.70630
H          6.74034        2.19748        3.57386
H         -0.07744        1.23463        2.32463
H          0.06028        2.57557        1.18981
H          4.71855        4.41313        4.32812
H          6.25038        4.06681        5.16707
H          4.92597        2.87822        5.19844
H          0.38012        0.37979        0.01943
H          1.88908        1.32137       -0.06045
H          1.73991       -0.02036        1.09545
