22
CIS-2-PHENYL-2-BUTENE.gamout	Energy:    -387.7390394
C          5.29998        2.82402        3.58341
C          4.22707        3.44776        3.04880
C          4.14187        4.94668        2.87319
C          3.05661        2.65063        2.57684
C          6.56136        3.42364        4.12914
C          2.28627        3.06268        1.47242
C          2.67001        1.46269        3.22730
C          1.20236        2.30676        1.02187
C          1.58838        0.70587        2.77903
C          0.84797        1.12197        1.66959
H          5.27409        1.72896        3.61328
H          4.93161        5.47443        3.42266
H          4.23848        5.23413        1.81108
H          3.16895        5.33469        3.21800
H          7.43695        3.10009        3.53687
H          6.55950        4.52272        4.14458
H          6.74529        3.07371        5.16095
H          2.54457        3.98075        0.94184
H          3.21368        1.13987        4.11711
H          0.63120        2.64825        0.15543
H          1.31401       -0.20799        3.31132
H         -0.00323        0.53331        1.32075
