16
CIS-1,3-HEXADIENE.gamout	Energy:    -234.2873953
C          5.50589        2.81424        2.65579
C          4.89554        1.92833        1.55867
C          3.86166        2.64466        0.73781
C          2.55860        2.33135        0.58271
C          1.84999        1.20307        1.17219
C          0.54610        0.94728        0.97034
H          6.29335        2.27383        3.20463
H          4.74161        3.13456        3.38253
H          5.95916        3.72503        2.22959
H          4.47622        1.01597        2.01083
H          5.70831        1.59306        0.88602
H          4.22393        3.53959        0.21559
H          1.95198        2.98417       -0.05630
H          2.42078        0.52662        1.81779
H          0.05512        0.08860        1.43425
H         -0.07140        1.58974        0.33342
