22
CIS-4-METHYLCYCLOHEXANOL.gamout	Energy:    -349.9199563
C          0.15033        0.77901        1.29525
C          1.03295        0.82228        0.04656
C          1.78842        2.15395       -0.08149
C          2.02645       -0.34960        0.00210
C          2.68789        2.19943       -1.32262
C          2.92546       -0.30857       -1.23911
C          3.67410        1.02431       -1.36750
O          4.69785        1.15265       -0.38848
H         -0.58562        1.60009        1.30037
H         -0.40866       -0.16877        1.36156
H          0.75480        0.87203        2.21473
H          0.37697        0.72907       -0.84163
H          1.07487        2.99366       -0.10490
H          2.40029        2.31008        0.82914
H          1.48331       -1.30775        0.03911
H          2.65023       -0.32575        0.91773
H          3.25544        3.14248       -1.35690
H          2.05897        2.16734       -2.23056
H          3.66063       -1.12800       -1.21390
H          2.30662       -0.45717       -2.14239
H          4.21159        1.04339       -2.32905
H          4.29015        1.14269        0.48715
