18
CIS-1,2-DIMETHYLCYCLOBUTANE.gamout	Energy:    -235.4989394
C          0.52595        1.35245       -0.22885
C          0.54159       -0.17030        0.08697
C          2.10665       -0.10014        0.07149
C          2.00492        1.44041        0.22256
C         -0.10004       -0.52807        1.42314
C          2.93312       -0.89516        1.06828
H         -0.20912        1.96358        0.31954
H          0.40984        1.55319       -1.30541
H          0.11138       -0.81409       -0.69946
H          2.45061       -0.33752       -0.95010
H          2.68968        2.05658       -0.38105
H          2.09919        1.75404        1.27546
H         -1.19377       -0.39869        1.37150
H          0.09827       -1.57547        1.70329
H          0.26647        0.11085        2.24417
H          4.00295       -0.64278        0.97625
H          2.83391       -1.98066        0.89954
H          2.63661       -0.69093        2.11010
