15
CIS-2-PENTENE.gamout	Energy:    -196.2508336
C          1.96749        3.21041        2.49773
C          0.45848        3.33014        2.23684
C          2.40320        1.79104        2.74176
C          3.25524        1.04732        2.01999
C          4.02022        1.44427        0.79006
H          2.22249        3.81885        3.38642
H          2.52425        3.65322        1.65622
H         -0.12754        2.91300        3.07328
H          0.16875        2.78172        1.32567
H          0.15800        4.38273        2.11130
H          1.93719        1.31202        3.61325
H          3.43196        0.01965        2.36250
H          5.10881        1.35622        0.95831
H          3.81350        2.47443        0.46541
H          3.78492        0.77026       -0.05315
