24
CIS-1,2-DIMETHYLCYCLOHEXANE.gamout	Energy:    -314.0370146
C          2.49118        1.06952        5.19401
C          2.86451        1.06460        3.70861
C          1.67529        1.38752        2.75128
C          4.06206        1.97596        3.40060
C          2.19228        1.78328        1.34397
C          4.63573        1.70946        1.99037
C          3.56048        1.18074        1.01904
H          3.32509        0.68290        5.80227
H          2.26041        2.08370        5.55954
H          1.61186        0.43516        5.39304
H          3.18392        0.03424        3.46839
H          4.84735        1.83838        4.16186
H          3.74063        3.02949        3.49035
H          2.27174        2.88495        1.28612
H          1.44768        1.49681        0.58323
H          5.46917        0.98930        2.04673
H          5.06720        2.64230        1.59062
H          3.84212        1.41288       -0.02073
H          3.49845        0.07955        1.07663
C          0.71819        2.46452        3.27542
H          1.09453        0.45250        2.64986
H         -0.04716        2.69891        2.51702
H          0.18817        2.15205        4.18769
H          1.25195        3.40397        3.50064
