27
CIS-1-METHYL-3-ETHYLCYCLOHEXANE.gamout	Energy:    -353.3061415
C          3.03393        2.72564        1.44739
C          4.29368        3.44351        0.95133
C          5.47100        2.47700        0.79557
C          3.28003        1.95763        2.75551
C          4.47798        1.00728        2.58415
C          2.03426        1.20977        3.26500
C          5.75596        1.70564        2.09105
C          6.91875        0.72371        1.93091
C          0.85540        2.09737        3.67416
H          2.21790        3.45382        1.57750
H          2.69142        2.01203        0.67288
H          4.08699        3.94923       -0.00633
H          4.56806        4.24001        1.66803
H          5.24510        1.75125       -0.00996
H          6.37422        3.02255        0.47399
H          3.55763        2.70486        3.52694
H          4.20520        0.21092        1.86374
H          4.68274        0.49748        3.54124
H          1.70223        0.49147        2.49143
H          2.33148        0.59503        4.13387
H          6.04334        2.45025        2.86026
H          6.68852       -0.04767        1.17499
H          7.83886        1.23849        1.60895
H          7.14215        0.20411        2.87724
H          1.14631        2.81874        4.45713
H          0.45351        2.67453        2.82600
H          0.02733        1.49205        4.07572
