19
CIS-BETA-METHYLSTYRENE.gamout	Energy:    -348.4803987
C          3.31611        2.87792        1.93684
C          3.62228        3.21373        3.26993
C          2.62046        3.59371        4.16479
C          1.96963        2.97340        1.53144
C          4.33381        2.47766        0.94673
C          0.96703        3.34918        2.42530
C          1.28762        3.65673        3.75089
C          5.47295        1.77956        1.11965
C          6.01962        1.15886        2.37176
H          4.66066        3.21128        3.60367
H          2.88704        3.85383        5.19233
H          1.70842        2.73844        0.49590
H          4.09837        2.77304       -0.08233
H         -0.06973        3.40614        2.08456
H          0.50564        3.95586        4.45279
H          6.07468        1.61258        0.21812
H          6.85010        1.75549        2.79382
H          6.43712        0.16239        2.15036
H          5.25920        1.04391        3.15750
