15
CIS-1,2-DIMETHYLCYCLOPROPANE.gamout	Energy:    -196.2404617
C          3.03411        2.04176        2.50701
C          3.94241        0.86947        2.20295
C          1.63392        2.17160        1.94460
C          1.83622        1.88959        3.41490
C          1.01235        1.14198        1.02518
H          3.57230        2.99252        2.60458
H          3.38889       -0.08013        2.14165
H          4.70333        0.75307        2.99263
H          4.47338        1.00773        1.24578
H          1.33616        3.20001        1.70677
H          1.61642        2.67536        4.14340
H          1.60124        0.87894        3.76773
H         -0.08823        1.20121        1.06197
H          1.29203        0.11400        1.30250
H          1.31964        1.29945       -0.02292
