5
CLO4-1.gamout	Energy:    -760.2203739
Cl        -2.83092        1.84394       -0.00002
O         -4.03412        1.54343        0.83692
O         -2.53533        0.67673       -0.88812
O         -1.65744        2.10245        0.89165
O         -3.09500        3.05355       -0.84033
