11
CYCLOPENTADIENE.gamout	Energy:    -193.8316327
C          2.58863        1.30756        0.73556
C          1.32188        0.50480        0.84483
C          2.81024        1.80173        2.13826
C          0.88627        0.53841        2.12535
C          1.81271        1.34620        2.93058
H          2.49085        2.14162        0.01262
H          3.43797        0.69738        0.37013
H          0.85048       -0.01221        0.00818
H          3.65049        2.42759        2.44125
H         -0.00895        0.04888        2.51391
H          1.70009        1.53906        3.99930
