18
CYCLOHEXANE.gamout	Energy:    -235.5361521
C          0.00001       -1.46351        0.22886
C         -1.26738        0.73185        0.22886
C          1.26735        0.73182        0.22886
C          0.00001        1.46317       -0.22883
C         -1.26707       -0.73167       -0.22884
C          1.26707       -0.73166       -0.22885
H          0.00002       -1.53282        1.33317
H         -1.32734        0.76622        1.33303
H          1.32730        0.76618        1.33303
H          0.00002        1.53208       -1.33316
H         -1.32667       -0.76584       -1.33302
H          1.32668       -0.76582       -1.33303
H          0.00002       -2.49957       -0.14858
H         -2.16454        1.24973       -0.14852
H          2.16451        1.24968       -0.14852
H          0.00002        2.49926        0.14831
H         -2.16427       -1.24957        0.14824
H          2.16427       -1.24954        0.14824
