11
CYCLOPROPYLAMINE.gamout	Energy:    -172.9985962
N          0.37041       -1.13679       -0.50691
C         -0.66681       -0.51096        0.27142
C         -1.31790        0.74364       -0.22767
C         -2.13395       -0.52865       -0.11099
H         -0.45280       -0.54143        1.34730
H         -1.04823        1.08251       -1.23401
H         -1.50402        1.55935        0.47693
H         -2.89034       -0.59569        0.67788
H         -2.40534       -1.04142       -1.03990
H          0.24543       -0.94520       -1.50091
H          0.33283       -2.15201       -0.40064
