27
CYCLONONANE.gamout	Energy:    -353.2794652
C          3.38846        4.36434        3.57494
C          1.97599        3.76913        3.64330
C          4.32953        3.73055        2.54214
C          1.12259        3.96167        2.36697
C          0.71598        2.69156        1.60456
C          1.82968        1.92464        0.86959
C          2.69772        0.94376        1.70371
C          4.21028        1.21778        1.77740
C          4.68915        2.24956        2.80896
H          3.30750        5.44665        3.36402
H          3.85386        4.28605        4.57454
H          2.03928        2.69752        3.89624
H          1.45648        4.23370        4.49722
H          3.89804        3.84001        1.53298
H          5.25610        4.32722        2.52220
H          0.19607        4.49352        2.63959
H          1.64625        4.63765        1.66588
H         -0.03575        2.99034        0.85269
H          0.18734        2.00221        2.29071
H          1.34539        1.34320        0.06866
H          2.47539        2.64877        0.34238
H          2.29799        0.86108        2.72959
H          2.57398       -0.06172        1.27102
H          4.71073        0.26344        2.01724
H          4.58029        1.49951        0.77308
H          4.31505        1.94935        3.80527
H          5.78596        2.16172        2.87673
