14
CYCLOPENTANONE.gamout	Energy:    -270.2059946
C          0.86231        1.96932       -0.15202
C          2.27317        1.49417        0.21717
C          2.29105        0.01285       -0.21117
H          2.41956        1.56901        1.30906
H          3.07204        2.08374       -0.25649
C          0.88954       -0.49425        0.15127
H          3.10072       -0.55820        0.26672
H          2.44475       -0.05874       -1.30227
C         -0.02356        0.72743       -0.00191
H          0.83484       -0.80532        1.21140
H          0.51724       -1.33782       -0.44846
H          0.80535        2.27835       -1.21265
H          0.46844        2.80466        0.44535
O         -1.22908        0.71409       -0.00373
