20
CYCLOHEXYL_ISOCYANATE.gamout	Energy:    -402.8188733
C         -2.64756        0.35904        2.90391
N         -2.71646        0.99389        1.88695
C         -3.53876        1.35318        0.76002
O         -2.46578       -0.21896        3.91323
C         -4.79922        2.11979        1.19027
C         -3.90616        0.12998       -0.09443
C         -5.64431        2.52001       -0.02273
C         -4.75238        0.53288       -1.30550
C         -6.00448        1.30687       -0.88415
H         -2.93083        2.03098        0.13378
H         -5.38941        1.47232        1.86462
H         -4.50761        3.00615        1.77475
H         -2.98576       -0.38359       -0.41224
H         -4.46937       -0.58130        0.53719
H         -6.55612        3.04013        0.31167
H         -5.07856        3.24741       -0.63370
H         -5.02888       -0.36322       -1.88399
H         -4.14440        1.16184       -1.98191
H         -6.67272        0.63687       -0.31211
H         -6.57074        1.62606       -1.77327
