16
CYCLOPENTANOL.gamout	Energy:    -271.3958254
O          0.00198        2.17273        2.77078
C          1.37938        1.93265        2.59600
C          2.26419        3.18504        2.49964
C          3.61170        2.65984        1.97456
C          3.27632        1.36537        1.16894
C          1.75672        1.15645        1.32338
H         -0.31119        2.68509        2.01197
H          1.68155        1.34661        3.48308
H          1.80215        3.87578        1.76866
H          2.34250        3.72630        3.45428
H          4.13499        3.40902        1.36158
H          4.28256        2.42174        2.81573
H          3.56811        1.44995        0.11114
H          3.83153        0.50501        1.57575
H          1.21175        1.61181        0.47503
H          1.46125        0.09782        1.36725
