5
DCA-1.gamout	Energy:    -240.1813318
N         -0.26337       -0.09409        0.00020
N          2.21277       -0.27207        0.00020
N          3.72438       -2.24122        0.00020
C          0.90488       -0.24575        0.00020
C          2.95464       -1.34947        0.00020
