31
DE-1.gamout	Energy:    -542.2705081
O         -5.08793        3.29672       -1.27168
O         -5.03763        1.04750       -1.54106
C          1.28773       -0.61069       -0.15363
C         -0.20079       -0.59857       -0.53396
C          1.92984       -2.00573       -0.14923
C         -0.85093        0.79424       -0.53673
C          3.41699       -2.02030        0.23161
C         -2.34150        0.80059       -0.91037
C          4.05163       -3.41622        0.23243
C         -3.00887        2.17580       -0.90624
C          5.53507       -3.42100        0.60945
C         -4.54874        2.17104       -1.28167
H          1.41246       -0.15276        0.84644
H          1.84743        0.04301       -0.85031
H         -0.32324       -1.05652       -1.53420
H         -0.75716       -1.25609        0.16144
H          1.80680       -2.46432       -1.14882
H          1.37156       -2.66002        0.54760
H         -0.29210        1.44962       -1.23426
H         -0.71900        1.25164        0.46381
H          3.97845       -1.36772       -0.46447
H          3.54310       -1.56484        1.23250
H         -2.48509        0.34746       -1.90737
H         -2.90523        0.14007       -0.22739
H          3.92491       -3.87250       -0.76669
H          3.49446       -4.06868        0.93036
H         -2.49842        2.86320       -1.60910
H         -2.91157        2.65338        0.08841
H          5.95186       -4.44107        0.59826
H          5.69470       -3.00667        1.61982
H          6.13081       -2.81068       -0.09127
