47
DECAMETHYLTETRASILOXANE.gamout	Energy:   -1781.8157295
C         -1.31059       -1.45220       -2.54292
Si        -0.90427        0.31292       -3.06533
C         -2.48310        1.33851       -3.22025
O          0.06014        0.97790       -1.88210
C          0.03743        0.32449       -4.70244
Si         0.93506        2.11370       -1.05125
O          1.70386        1.39136        0.22125
C          2.23823        2.85355       -2.18406
C         -0.23154        3.40593       -0.35304
Si         2.32807        0.21073        1.20024
O          1.13933       -0.39251        2.17104
C          3.00428       -1.19477        0.15590
C          3.64280        1.02315        2.26607
Si         0.06768       -0.90520        3.33251
C         -1.54413        0.05184        3.12064
C         -0.21149       -2.75648        3.09320
C          0.81336       -0.57072        5.03599
H         -0.39483       -2.05840       -2.43856
H         -1.96284       -1.95426       -3.27827
H         -1.82899       -1.46511       -1.56928
H         -2.25709        2.38051       -3.50509
H         -3.15648        0.92345       -3.98967
H         -3.04093        1.36827       -2.26872
H         -0.56096       -0.12471       -5.51362
H          0.29349        1.35320       -5.00901
H          0.97982       -0.24471       -4.62937
H          2.86821        3.57372       -1.63559
H          1.78159        3.38765       -3.03450
H          2.90025        2.07199       -2.59354
H         -0.75297        3.96401       -1.14887
H         -0.99891        2.92501        0.27779
H          0.30799        4.13292        0.27629
H          3.44414       -1.98243        0.79005
H          3.78533       -0.84524       -0.53982
H          2.20124       -1.65779       -0.44231
H          3.21083        1.86280        2.83677
H          4.08104        0.31352        2.98749
H          4.46004        1.42976        1.64723
H         -2.31146       -0.27696        3.84196
H         -1.38513        1.13333        3.27106
H         -1.95765       -0.08450        2.10681
H         -0.90835       -3.16380        3.84575
H          0.73752       -3.31301        3.17956
H         -0.63110       -2.97343        2.09596
H          1.00789        0.50553        5.18295
H          0.13929       -0.90071        5.84484
H          1.77299       -1.10032        5.16564
