28
DI-N-BUTYL_KETONE.gamout	Energy:    -428.4352535
C         -1.29770       -0.64219       -0.00005
C         -2.56817        0.20730        0.00000
C         -3.85705       -0.62003        0.00005
C         -5.12665        0.23390        0.00005
C         -0.00018        0.16101       -0.00006
O         -0.00041        1.37306       -0.00006
C          1.29795       -0.64113       -0.00002
C          2.56833        0.20846        0.00001
C          3.85659       -0.61960       -0.00001
C          5.12722        0.23289        0.00009
H         -1.27358       -1.31911        0.87560
H         -1.27362       -1.31906       -0.87575
H         -2.55069        0.87699        0.87728
H         -2.55074        0.87702       -0.87726
H         -3.86519       -1.28830       -0.88137
H         -3.86516       -1.28826        0.88151
H         -5.17283        0.88541        0.88915
H         -5.17296        0.88533       -0.88909
H         -6.03201       -0.39362        0.00013
H          1.27396       -1.31809        0.87562
H          1.27403       -1.31811       -0.87565
H          2.55105        0.87814       -0.87730
H          2.55106        0.87812        0.87734
H          3.86425       -1.28796        0.88137
H          3.86432       -1.28785       -0.88149
H          5.17454        0.88433       -0.88901
H          5.17456        0.88418        0.88930
H          6.03154       -0.39604        0.00003
