21
DI-N-PROPYL_SULFIDE.gamout	Energy:    -634.7439904
S         50.92806       -0.02264        0.00000
C         49.37957        0.95704       -0.00001
C         50.23544       -1.71890        0.00002
C         51.35636       -2.75821        0.00006
C         50.82575       -4.19336        0.00005
C         49.69232        2.45363       -0.00007
C         48.43186        3.32033       -0.00005
H         48.78467        0.68869       -0.89082
H         48.78469        0.68877        0.89084
H         49.59453       -1.84406        0.89045
H         49.59457       -1.84410       -0.89044
H         51.99877       -2.59598       -0.88320
H         51.99868       -2.59594        0.88338
H         51.64947       -4.92464        0.00008
H         50.20440       -4.39291        0.88964
H         50.20450       -4.39292       -0.88962
H         50.31054        2.69105        0.88333
H         50.31048        2.69096       -0.88354
H         48.68562        4.39255       -0.00010
H         47.80787        3.12798       -0.88945
H         47.80796        3.12805        0.88942
