19
DIALLYLCATION+1.gamout	Energy:    -289.9102150
C         -5.65793        1.83517       -0.05033
C         -4.40280        2.28683       -0.04828
C         -3.19550        1.37935       -0.06360
C         -0.64681        1.36015       -0.13321
C          0.57164        2.25072       -0.19134
C          1.82074        1.78349       -0.17332
N         -1.91574        2.17631       -0.11747
H         -0.67042        0.73688        0.77469
H         -0.72383        0.68963       -1.00377
H         -3.17957        0.71229       -0.93987
H         -3.12892        0.75030        0.83842
H         -6.50287        2.52780       -0.03249
H         -5.89462        0.76595       -0.06479
H         -4.21917        3.36950       -0.02873
H          2.67399        2.46430       -0.22341
H          2.04521        0.71323       -0.11335
H          0.40126        3.33373       -0.25788
H         -1.88783        2.82398        0.68402
H         -1.93494        2.78519       -0.94869
