33
DIAZEPAM.gamout	Energy:   -1261.2019680
N         26.45210       49.70598        0.22947
C         26.88344       51.05201        0.17772
C         25.31762       49.35050        1.08025
C         26.86831       48.73471       -0.68098
C         28.04134       49.13410       -1.57588
O         26.33958       47.64479       -0.73802
N         29.23584       49.32979       -0.78694
C         29.32313       50.36419       -0.03205
C         30.56758       50.53448        0.77574
C         28.25193       51.40132        0.05658
C         28.61173       52.75999        0.00836
C         25.93194       52.08361        0.29124
C         26.30120       53.42403        0.25429
C         27.64932       53.75922        0.09823
Cl        28.12683       55.43833        0.02609
C         30.57963       51.25822        1.97867
C         31.75508       49.91407        0.35152
C         31.74828       51.35966        2.73571
C         32.92357       50.74541        2.30133
C         32.92159       50.02165        1.10444
H         25.38597       49.89406        2.03277
H         24.34751       49.57712        0.60371
H         25.35135       48.26889        1.25686
H         28.18720       48.30300       -2.27566
H         27.76036       50.03822       -2.15355
H         29.66221       53.03458       -0.08954
H         24.87603       51.83105        0.39549
H         25.54945       54.21036        0.33525
H         29.66701       51.73684        2.33609
H         31.73305       49.34425       -0.57779
H         31.73501       51.92169        3.67179
H         33.83908       50.82991        2.89105
H         33.83811       49.53942        0.75783
