40
DIAZINON.gamout	Energy:   -1543.3489532
S          1.76701        0.67941        2.10493
P          1.88208        0.13721        0.25059
O          0.84060       -1.03003       -0.28683
O          1.70671        1.22545       -0.91106
O          3.26108       -0.55741       -0.21655
N         -1.10528        0.17432        0.05064
N         -3.22103       -0.88217       -0.13882
C         -3.11770        1.48658        0.42912
C         -2.44525        0.17690        0.09682
C         -2.96597        2.47557       -0.73705
C         -2.57042        2.06991        1.73819
C         -0.51666       -0.97164       -0.22722
C         -2.61857       -2.04402       -0.43327
C         -1.22726       -2.14645       -0.48131
C         -3.50444       -3.22573       -0.70310
C          2.28329        2.54068       -0.83563
C          3.90178       -1.59635        0.53912
C          1.48190        3.45755       -1.73221
C          5.39190       -1.52520        0.28150
H         -4.18515        1.24797        0.55061
H         -1.90148        2.67436       -0.93899
H         -3.45615        3.43189       -0.49646
H         -3.41965        2.08190       -1.65981
H         -2.75994        1.39326        2.58615
H         -3.05185        3.03490        1.96165
H         -1.48238        2.22178        1.67184
H         -0.70895       -3.07780       -0.70731
H         -3.27434       -4.05858       -0.01902
H         -4.55235       -2.92951       -0.57183
H         -3.36208       -3.59767       -1.73113
H          2.26407        2.88306        0.21243
H          3.33688        2.47408       -1.15808
H          3.67749       -1.45754        1.61015
H          3.47943       -2.56539        0.22121
H          1.89322        4.47818       -1.68813
H          1.51144        3.11527       -2.77824
H          0.43110        3.48984       -1.40746
H          5.90690       -2.33669        0.81938
H          5.61099       -1.62490       -0.79303
H          5.79806       -0.56350        0.63112
