29
DIBENZYL_ETHER.gamout	Energy:    -616.3002496
O          6.60015        4.13327       -1.28021
C          7.29335        2.94624       -0.98213
C          6.32964        1.84811       -0.60285
C          7.44096        5.22566       -1.56105
C          6.64911        0.50924       -0.86366
C          5.12705        2.14177        0.05225
C          6.62839        6.43276       -1.96030
C          5.79132       -0.51950       -0.46870
C          4.26444        1.11476        0.43993
C          7.08811        7.72251       -1.66482
C          5.42865        6.28818       -2.66796
C          4.59403       -0.21895        0.18496
C          6.37138        8.84801       -2.07702
C          4.70667        7.41199       -3.07319
C          5.17629        8.69562       -2.78309
H          7.90880        2.62271       -1.84745
H          8.00209        3.12720       -0.14290
H          8.07210        5.47125       -0.68131
H          8.14071        4.95644       -2.38416
H          7.57959        0.26875       -1.38564
H          4.86932        3.18469        0.24197
H          6.05556       -1.55812       -0.68117
H          3.32676        1.35820        0.94557
H          8.01753        7.84752       -1.10212
H          5.06063        5.28445       -2.88525
H          3.91795       -1.02129        0.48969
H          6.74400        9.84647       -1.83703
H          3.76916        7.28476       -3.62015
H          4.60991        9.57384       -3.10176
