5
DIBROMODIFLUOROMETHANE.gamout	Energy:   -5384.9558537
C         -0.86078       -0.20708        1.01791
Br        -0.48265        1.62791        0.44354
Br         0.76262       -1.11797        1.62321
F         -1.38974       -0.87952        0.00347
F         -1.74247       -0.18530        2.00997
