6
DIBROMOACETONITRILE.gamout	Energy:   -5278.8131660
Br         1.31147       -1.63081       -0.22044
Br         1.31200        1.63106       -0.22042
N         -2.08190       -0.00203       -0.17270
C          0.45485        0.00023        0.43932
C         -0.95342        0.00033        0.09175
H          0.58776        0.00023        1.52715
