5
DIBROMOMETHANE.gamout	Energy:   -5186.7038921
Br         1.86417       -0.19855       -0.00000
Br        -0.80858        1.69139        0.00000
C         -0.07945       -0.11244       -0.00000
H         -0.43476       -0.61432        0.90491
H         -0.43474       -0.61435       -0.90490
