30
DIBUTYLCARBAMATE-1.gamout	Energy:    -558.3079013
C         -2.15942        1.66312       -0.16257
C         -0.46043        2.79818       -1.57819
N         -0.93828        1.60508       -0.92691
C         -3.43991        1.44214       -0.99342
H         -2.20818        2.63440        0.36785
H         -2.11849        0.86957        0.60131
C         -4.74222        1.40211       -0.18539
C         -5.13216        2.72232        0.48731
H         -4.66033        0.61157        0.58462
H         -5.56953        1.08670       -0.84964
H         -5.21076        3.53995       -0.25124
H         -4.39170        3.03556        1.24167
C          0.54412        3.62327       -0.74598
H          0.03180        2.48422       -2.51257
H         -1.31138        3.45831       -1.84855
C          1.89260        2.92688       -0.55328
C          2.81985        3.64225        0.42914
H          2.38895        2.82521       -1.53429
H          1.70735        1.89074       -0.23082
H          2.36610        3.70948        1.43455
H          3.04361        4.67698        0.10835
H         -3.51323        2.21798       -1.78040
H          0.09521        3.83707        0.24454
C         -0.41536        0.29547       -1.32234
O          0.61680        0.32857       -2.02837
O         -1.06770       -0.67968       -0.88902
H         -3.29856        0.47440       -1.49859
H          0.69738        4.61009       -1.23096
H         -6.10736        2.64343        0.99804
H          3.78321        3.11534        0.53836
