5
DICHLOROMONOBROMOMETHANE.gamout	Energy:   -3532.3679870
C          0.89959        1.00587        0.03477
Br        -0.83259        1.92434       -0.03361
Cl         2.24904        2.16245       -0.02604
Cl         1.00978       -0.06763        1.44817
H          0.94722        0.38528       -0.86404
