5
DICHLOROFLUOROMETHANE.gamout	Energy:   -1058.3715183
Cl         1.72373        1.48427        0.00318
C          0.16931        0.60641       -0.01849
Cl        -1.21804        1.72966        0.00270
F          0.10249       -0.17171       -1.10734
H          0.11771       -0.01065        0.88802
