22
DICYCLOPENTADIENE.gamout	Energy:    -387.6882106
C          2.90587        1.09610        2.86533
C          3.20329        1.50452        1.37648
C          4.45615        2.43039        1.52957
C          1.92066        2.20427        0.85301
C          4.02989        1.85538        3.66503
C          1.50177        1.58476        3.10110
C          4.13439        3.16101        2.85120
C          5.59252        1.53323        1.99609
C          0.97476        2.18498        2.02732
C          5.33785        1.18991        3.26844
H          2.98865        0.01160        3.04935
H          3.45259        0.63602        0.75079
H          4.65743        3.05286        0.64613
H          2.11990        3.23709        0.50982
H          1.49291        1.67886       -0.01959
H          3.83054        1.94458        4.74227
H          0.98985        1.46171        4.05921
H          3.20284        3.74508        2.82837
H          4.96030        3.80118        3.18965
H          6.39602        1.15983        1.35966
H         -0.02615        2.62204        1.98563
H          5.89115        0.47948        3.88418
