15
DIETHYL_SULFIDE.gamout	Energy:    -556.2315274
C          0.82455        2.54971        4.16905
S          1.16175        0.83044        3.62728
C          1.02408        1.03601        1.81024
C          0.87582        2.64256        5.69068
C          1.27057       -0.29471        1.10698
H          1.57238        3.21987        3.71179
H         -0.16813        2.85086        3.79344
H          0.01746        1.42082        1.57247
H          1.75706        1.79248        1.48160
H          1.86703        2.35284        6.07468
H          0.12565        1.98287        6.15555
H          0.67164        3.67403        6.02071
H          2.27693       -0.68441        1.32973
H          1.18755       -0.17428        0.01465
H          0.53615       -1.05351        1.42152
