29
DIETHYLENE_GLYCOL_DIETHYL_ETHER.gamout	Energy:    -540.5967445
O         -0.00019        0.30326        0.00007
O          3.53280       -0.26790       -0.00194
O         -3.53279       -0.26808        0.00194
C          1.17836       -0.45966       -0.00051
C         -1.17864       -0.45985        0.00063
C          2.35659        0.49592       -0.00129
C         -2.35666        0.49576        0.00134
C          4.71605        0.49517       -0.00289
C         -4.71595        0.49504        0.00280
C          5.90302       -0.44829       -0.00336
C         -5.90291       -0.44837        0.00324
H          1.23618       -1.11674        0.89167
H          1.23515       -1.11688       -0.89265
H         -1.23635       -1.11692       -0.89156
H         -1.23539       -1.11706        0.89277
H          2.29835        1.15391        0.89086
H          2.29725        1.15375       -0.89349
H         -2.29835        1.15373       -0.89083
H         -2.29737        1.15361        0.89352
H          4.74439        1.15911       -0.89350
H          4.74546        1.15964        0.88728
H         -4.74430        1.15902        0.89338
H         -4.74528        1.15948       -0.88740
H          6.84923        0.11523       -0.00413
H          5.88115       -1.09432        0.88834
H          5.88000       -1.09483       -0.89466
H         -6.84912        0.11515        0.00398
H         -5.88104       -1.09442       -0.88844
H         -5.87993       -1.09490        0.89456
