30
DIETHYL_PHTHALATE.gamout	Energy:    -765.6372094
C         -1.48478        0.71072        0.49781
C         -0.74538       -0.58392        0.31451
C          0.64583       -0.62059        0.08689
C          1.41113        0.62160       -0.26442
O          0.99443        1.50725       -0.97065
O          2.65150        0.60554        0.25550
C          3.48726        1.72924       -0.06558
C          4.80050        1.56448        0.66988
C          1.30795       -1.85428        0.07948
C          0.60500       -3.04528        0.26697
C         -0.77533       -3.01086        0.46578
C         -1.44235       -1.78551        0.48716
O         -1.07945        1.64883        1.13948
O         -2.69778        0.66911       -0.07954
C         -3.51855        1.83670        0.08533
C         -4.78401        1.63947       -0.72093
H          3.62871        1.77188       -1.15854
H          2.96357        2.65327        0.22708
H          4.64189        1.52826        1.75912
H          5.31533        0.63886        0.36701
H          5.46264        2.41563        0.44665
H          2.38486       -1.87100       -0.09223
H          1.13621       -3.99950        0.25118
H         -1.33533       -3.93745        0.61043
H         -2.51953       -1.74950        0.65488
H         -3.73101        1.97669        1.15872
H         -2.94873        2.71921       -0.24626
H         -4.55640        1.50912       -1.79057
H         -5.34262        0.75427       -0.37768
H         -5.43502        2.52101       -0.61273
