24
DIISOPROPANOLAMINE.gamout	Energy:    -442.2528713
O          0.03453       27.68801        0.74089
C          1.26059       27.28238        0.14822
C          1.92723       28.57732       -0.32420
C          2.11110       26.48071        1.13132
N          3.17653       28.34887       -1.03348
C          3.70024       29.51578       -1.72629
O          5.19041       30.39093       -3.31571
C          4.90614       29.19046       -2.61027
C          6.12704       28.71253       -1.82620
H         -0.43754       26.89838        1.03444
H          1.07351       26.65710       -0.74924
H          1.21753       29.07464       -1.00491
H          2.02667       29.24929        0.55887
H          3.04384       26.12809        0.66182
H          1.56687       25.58478        1.47546
H          2.35977       27.08746        2.01835
H          3.87662       28.00240       -0.37890
H          2.91713       29.91762       -2.38967
H          3.98919       30.35240       -1.04905
H          5.92771       30.22314       -3.91642
H          4.59465       28.38742       -3.30983
H          6.97987       28.53599       -2.50342
H          5.92976       27.76093       -1.30597
H          6.43325       29.47030       -1.08544
