33
DIISOPENTYL_SULFIDE.gamout	Energy:    -791.7680289
S          0.03694        0.86890       -0.18097
C          3.37560        3.18360        1.06809
C         -3.02452        3.72377        0.54330
C          2.30486        2.53214        0.17136
C         -2.08006        2.52129        0.73129
C          1.32157        1.61238        0.89889
C         -1.11532        2.27420       -0.43068
C          4.17018        4.22805        0.27618
C          4.31504        2.15354        1.70407
C         -3.81579        3.99150        1.82826
C         -3.97133        3.54759       -0.64849
H          2.84772        3.71210        1.88597
H         -2.39486        4.61374        0.34582
H          2.79413        1.96415       -0.64010
H          1.73536        3.33718       -0.32463
H         -2.67504        1.60610        0.90443
H         -1.49332        2.67941        1.65292
H          1.83344        0.74048        1.33533
H          0.83306        2.13662        1.73787
H         -1.65776        2.01298       -1.35260
H         -0.53208        3.18107       -0.66389
H          4.91422        4.73448        0.91214
H          4.71316        3.76105       -0.56409
H          3.50790        5.00183       -0.14462
H          3.77907        1.44372        2.35312
H          4.83918        1.56834        0.92806
H          5.08113        2.64700        2.32338
H         -4.46075        3.13223        2.08305
H         -3.14745        4.17167        2.68574
H         -4.46615        4.87417        1.71939
H         -3.42767        3.43845       -1.59970
H         -4.63965        4.41743       -0.75351
H         -4.60787        2.65404       -0.52156
