17
DIMETHYL_MALONATE.gamout	Energy:    -495.6180931
C          3.82415        0.76519        1.62244
C          3.10901        2.04386        1.18209
C          5.28952        1.02703        1.90738
O          1.78890        1.94659        0.91046
O          3.65988        3.10449        1.07664
O          5.99359        1.08339        0.76825
O          5.76331        1.15618        3.00687
C          1.07261        0.72360        0.99836
C          7.37794        1.40575        0.90125
H          3.72949        0.00287        0.83295
H          3.36060        0.37107        2.53873
H          1.46473       -0.03697        0.30254
H          1.07519        0.31395        2.02227
H          0.03700        0.95568        0.71627
H          7.88657        0.68756        1.56245
H          7.80059        1.36274       -0.11010
H          7.49891        2.41565        1.32207
