25
DIPHENYLMETHANE.gamout	Energy:    -501.9279101
C          2.74839        2.72842        1.08237
C          4.09363        2.23961        1.59315
C          4.32751        0.87717        1.82789
C          5.57478        0.42439        2.26996
C          6.61328        1.33114        2.48697
C          6.39265        2.69335        2.25901
C          5.14683        3.14006        1.81814
C          2.06216        3.78472        1.93228
C          1.79067        3.55083        3.28935
C          1.13043        4.50450        4.06378
C          0.72613        5.71744        3.49714
C          0.99161        5.96505        2.14986
C          1.65565        5.00592        1.37796
H          2.07727        1.85814        0.98139
H          2.87289        3.12841        0.06148
H          3.52224        0.15695        1.65756
H          5.73114       -0.64272        2.44564
H          7.58883        0.98147        2.83269
H          7.19763        3.41344        2.42522
H          4.98722        4.20796        1.64788
H          2.10284        2.60864        3.74704
H          0.92806        4.29844        5.11771
H          0.20913        6.46410        4.10443
H          0.68396        6.90878        1.69342
H          1.85586        5.20956        0.32224
