11
DMA+1.gamout	Energy:    -135.3389008
C         -5.76016        0.77001        0.01957
C         -3.23317        0.70483        0.09702
N         -4.49786        0.09804       -0.44003
H         -5.73690        1.81911       -0.30245
H         -5.80928        0.71321        1.11471
H         -6.62092        0.25502       -0.42628
H         -4.53197       -0.89870       -0.18056
H         -3.25712        0.65426        1.19324
H         -3.17853        1.75112       -0.23079
H         -2.37497        0.14090       -0.29048
H         -4.46553        0.10439       -1.46997
