41
DMDA+1.gamout	Energy:    -527.9103397
N          2.15438        1.70336       -1.50922
C          2.27074        2.61908       -0.32982
C          3.50445        1.34550       -2.05466
C          1.23097        2.23915       -2.59006
C         -0.23335        2.30333       -2.16913
C         -1.14531        2.69709       -3.34435
C         -2.62614        2.78936       -2.95130
C         -3.55356        3.16092       -4.11658
C         -5.03337        3.25465       -3.71993
C         -5.97123        3.61345       -4.88084
C         -7.44996        3.70332       -4.48167
C         -8.39043        4.05934       -5.63870
C         -9.86225        4.13681       -5.22662
H          1.72428        0.83188       -1.16973
H          1.27845        2.78793        0.10136
H          2.92773        2.15625        0.41703
H          2.70047        3.57200       -0.66638
H          3.38387        0.61264       -2.86212
H          4.11433        0.91761       -1.24929
H          3.98216        2.25425       -2.44406
H          1.35776        1.56425       -3.44897
H          1.62813        3.22607       -2.87467
H         -0.37079        3.02995       -1.35054
H         -0.54755        1.31605       -1.77940
H         -1.02416        1.96136       -4.16036
H         -0.81000        3.66752       -3.75398
H         -2.74081        3.53345       -2.14087
H         -2.94810        1.82186       -2.52176
H         -3.43765        2.41450       -4.92491
H         -3.22795        4.12601       -4.54859
H         -5.14603        4.00460       -2.91416
H         -5.35148        2.29087       -3.27858
H         -5.85627        2.86379       -5.68656
H         -5.65365        4.57772       -5.32128
H         -7.56570        4.45312       -3.67598
H         -7.76620        2.73881       -4.04019
H         -8.27293        3.31352       -6.44678
H         -8.07921        5.02618       -6.07644
H        -10.22055        3.17239       -4.82731
H        -10.50532        4.40123       -6.08019
H        -10.02278        4.89655       -4.44252
