18
EPY+1.gamout	Energy:    -326.8391966
N          0.18002        0.78231        0.75309
C          0.56040        1.92791        1.36941
C          0.09513        3.15969        0.94398
C         -0.78534        3.21899       -0.14154
C         -0.66668        0.82227       -0.29703
C         -1.16754        2.03094       -0.76467
H          1.24905        1.82183        2.20905
H          0.42745        4.06132        1.45991
H         -1.16416        4.17991       -0.49651
H         -1.85150        2.02654       -1.61422
H         -0.93249       -0.12874       -0.75322
C          0.74028       -0.50716        1.28889
C          0.30154       -1.76726        0.56660
H          0.61875       -1.78632       -0.48738
H         -0.78462       -1.93670        0.62824
H          0.78828       -2.61847        1.06553
H          0.44480       -0.54400        2.34877
H          1.83473       -0.39818        1.25000
