23
ETHYL_VALERATE.gamout	Energy:    -425.0735343
C          0.60516        0.32190       -0.00106
C         -0.61946       -0.57067       -0.00104
C         -1.94179        0.19198        0.00025
C         -3.16684       -0.72759        0.00037
C         -4.49690        0.02860        0.00161
O          0.59801        1.52902       -0.00248
O          1.73306       -0.41297        0.00052
C          2.97476        0.30577        0.00014
C          4.09563       -0.71292        0.00161
H         -0.53748       -1.23877       -0.87714
H         -0.53655       -1.24012        0.87392
H         -1.97307        0.85870        0.87937
H         -1.97408        0.85997       -0.87786
H         -3.12344       -1.39373       -0.88144
H         -3.12244       -1.39485        0.88129
H         -4.59189        0.67404        0.89117
H         -4.59298        0.67515       -0.88703
H         -5.35163       -0.66633        0.00169
H          3.01310        0.96041       -0.88634
H          3.01249        0.96234        0.88522
H          4.04063       -1.35598        0.89399
H          4.04118       -1.35786       -0.88945
H          5.07121       -0.20217        0.00137
