18
ETHYL_METHACRYLATE.gamout	Energy:    -384.5952528
C          0.03249        1.42415       -0.76098
C          1.10995        0.89615       -0.16061
C          1.13769       -0.46394        0.47905
C          2.40040        1.65204       -0.08224
O          3.39153        1.21237        0.45820
O          2.35189        2.85987       -0.67543
C          3.54638        3.65872       -0.64833
C          3.66187        4.46992        0.63255
H          0.06548        2.41786       -1.20919
H         -0.90782        0.86897       -0.81414
H          0.16351       -0.96375        0.38655
H          1.91045       -1.09917        0.01660
H          1.40184       -0.38985        1.54642
H          4.41800        2.99926       -0.77399
H          3.45945        4.31694       -1.52536
H          4.54689        5.12427        0.57901
H          2.77368        5.10434        0.78020
H          3.77735        3.81281        1.50728
