29
ETHYL_HEPTANOATE.gamout	Energy:    -503.5609810
C          1.28320       -0.01810        0.04942
C          0.56235        0.32035        1.36926
O          1.18649        0.61640        2.53146
O         -0.64160        0.32350        1.36979
C          2.79921       -0.08172       -0.17194
C          2.58838        0.68577        2.79168
C          3.14420       -0.44736       -1.62493
C          2.74810        1.06073        4.25284
C          4.64997       -0.52323       -1.90559
C          4.99893       -0.88243       -3.35486
C          6.50327       -0.95256       -3.62539
H          0.84318        0.69949       -0.66466
H          0.83368       -0.98490       -0.23666
H          3.26146       -0.82654        0.49734
H          3.27019        0.88700        0.06538
H          3.06336        1.44217        2.14573
H          3.06954       -0.28507        2.58919
H          2.68323        0.29333       -2.30532
H          2.67491       -1.41678       -1.87879
H          2.27160        2.03154        4.45843
H          3.81568        1.13091        4.51560
H          2.27661        0.30568        4.90058
H          5.11127       -1.26471       -1.22578
H          5.11697        0.44750       -1.65069
H          4.53779       -0.14093       -4.03322
H          4.53329       -1.85199       -3.61200
H          6.99510        0.01307       -3.41761
H          6.71015       -1.21101       -4.67578
H          6.99158       -1.71365       -2.99309
