23
ETHYL_TRIMETHYLACETATE.gamout	Energy:    -425.0726249
C          0.36656       19.85494       -0.95994
C          1.25193       20.87324       -0.21602
C          0.69676       22.28066       -0.45365
C          1.23126       20.57355        1.29534
C          2.68755       20.81841       -0.74808
O          1.29845       23.18747       -0.97755
O         -0.57215       22.39866       -0.01023
C         -1.22136       23.67237       -0.17293
C         -0.91371       24.61487        0.97907
H          0.76286       18.83728       -0.81552
H          0.34846       20.05820       -2.04257
H         -0.66764       19.88062       -0.58872
H          1.84796       21.29550        1.85411
H          1.63937       19.56775        1.48107
H          0.20853       20.61321        1.69536
H          2.72011       21.04725       -1.82295
H          3.32891       21.55063       -0.23678
H          3.11121       19.81435       -0.59159
H         -0.90970       24.10853       -1.13365
H         -2.29405       23.43296       -0.21304
H         -1.48560       25.54969        0.86204
H         -1.19082       24.16164        1.94391
H          0.15584       24.87142        1.00297
