38
ETHYL_DECANOATE.gamout	Energy:    -621.3432415
C          1.11620       -0.03603       -0.10611
C          0.54833       -1.28583        0.56847
C          2.63873       -0.00552       -0.10339
C         -0.98441       -1.33121        0.58871
O          3.25075        1.06280       -0.66953
O          3.31783       -0.87321        0.37888
C         -1.55676       -2.58237        1.27137
C          2.54102        2.13966       -1.28121
C         -3.09061       -2.63713        1.30609
C          3.56599        3.13755       -1.78228
C         -3.65818       -3.88821        1.99302
C         -5.19082       -3.94694        2.03489
C         -5.74993       -5.19791        2.72322
C         -7.27889       -5.24823        2.76106
H          0.74525        0.87700        0.39456
H          0.75875        0.04267       -1.14910
H          0.94303       -1.33855        1.59715
H          0.94984       -2.17779        0.05862
H         -1.37140       -1.27348       -0.44690
H         -1.37288       -0.43074        1.10216
H         -1.16715       -2.63814        2.30536
H         -1.17076       -3.48382        0.75933
H          1.86097        2.61575       -0.55228
H          1.92366        1.76476       -2.11714
H         -3.48197       -2.58061        0.27236
H         -3.47537       -1.73554        1.81979
H          4.17684        3.51930       -0.94979
H          3.06225        3.98915       -2.26589
H          4.24036        2.66754       -2.51442
H         -3.26450       -3.94368        3.02577
H         -3.27407       -4.79024        1.47995
H         -5.58772       -3.89300        1.00302
H         -5.57726       -3.04670        2.54996
H         -5.35382       -5.25219        3.75431
H         -5.36517       -6.09808        2.20891
H         -7.69694       -4.38360        3.30441
H         -7.63747       -6.16105        3.26195
H         -7.70675       -5.23595        1.74407
