16
ETHYLENE_GLYCOL_ETHYL_ETHER.gamout	Energy:    -308.4578930
C         -1.41041       -0.42402        0.25564
C          0.67181       -1.53165        0.36159
C          2.05993       -1.50903       -0.25353
C         -2.12512        0.70471       -0.46279
H          3.69845       -2.53199       -0.01960
O          2.81233       -2.53330        0.36067
O         -0.09301       -0.51746       -0.23462
H         -1.60444        1.66049       -0.29421
H         -2.15153        0.51687       -1.54778
H         -3.16048        0.80178       -0.09991
H         -1.39938       -0.24262        1.35197
H         -1.94704       -1.38509        0.10222
H          0.21636       -2.53190        0.20373
H          0.75564       -1.38548        1.45915
H          1.96406       -1.65210       -1.34905
H          2.50089       -0.50453       -0.09163
