8
ETHYLENEIMINE.gamout	Energy:    -133.7337669
C          2.03966        1.42345        0.95494
C          0.55915        1.55232        0.93973
N          1.19002        0.26848        1.24849
H          2.59182        1.90338        1.77269
H          2.59611        1.36989        0.01185
H          0.02107        1.59444       -0.01457
H          0.08189        2.12184        1.74704
H          1.16444        0.09273        2.25408
