62
ETHYL_STEARATE.gamout	Energy:    -935.4053818
C         -0.15419        0.51589        0.02215
C          1.12858        1.33698       -0.12194
H         20.47324       -0.37557       -0.79055
O         21.81286        2.33764        0.16719
H         25.00414       -0.82284        0.76183
H         -1.05182        1.14048       -0.11306
H         -0.19825       -0.29488       -0.72508
H         -0.22289        0.04732        1.01889
C          2.40969        0.51215        0.05030
H          1.14269        1.82623       -1.11353
H          1.12480        2.15998        0.61660
C          3.70138        1.32616       -0.09516
H          2.39540        0.02141        1.04211
H          2.41242       -0.31093       -0.68954
C          4.98530        0.50068        0.06440
H          3.70798        1.82245       -1.08414
H          3.70106        2.14531        0.64883
C          6.27751        1.31637       -0.07751
H          4.97604        0.00018        1.05123
H          4.98726       -0.31560       -0.68277
C          7.56168        0.48878        0.07083
H          6.28161        1.82114       -1.06222
H          6.27939        2.12917        0.67342
C          8.85475        1.30426       -0.06793
H          7.55511       -0.02007        1.05348
H          7.56029       -0.32190       -0.68246
C         10.13874        0.47545        0.07674
H          8.85922        1.81277       -1.05075
H          8.85649        2.11418        0.68610
C         11.43297        1.28892       -0.06698
H         10.13569       -0.03222        1.06006
H         10.13366       -0.33654       -0.67516
C         12.71647        0.46007        0.08582
H         11.43951        1.79021       -1.05345
H         11.43444        2.10374        0.68170
C         14.01203        1.26973       -0.06936
H         12.71408       -0.03523        1.07543
H         12.70922       -0.36092       -0.65613
C         15.29382        0.43988        0.09417
H         14.01908        1.75909       -1.06172
H         14.01562        2.09312        0.66977
C         16.59140        1.24648       -0.05990
H         15.28534       -0.04810        1.08736
H         15.28896       -0.38597       -0.64239
C         17.87044        0.40858        0.08182
H         16.59357        1.74819       -1.04599
H         16.60547        2.06107        0.68857
C         19.16773        1.21725       -0.03822
H         17.85682       -0.11311        1.05786
H         17.86623       -0.39335       -0.68103
C         20.42462        0.35087        0.03890
H         19.17417        1.77555       -0.99124
H         19.21588        1.98585        0.75163
C         21.71702        1.14078        0.04060
H         20.42622       -0.26508        0.95753
O         22.77805        0.32505       -0.10393
C         24.07334        0.94236       -0.08008
H         25.01135       -0.77270       -1.02079
H         26.12258        0.27317       -0.09436
C         25.10998       -0.15963       -0.11103
H         24.16345        1.61809       -0.94709
H         24.15825        1.56747        0.82368
