10
ETHYLENE_GLYCOL.gamout	Energy:    -229.9483667
C         -0.37761        1.55841        1.41710
O          0.94008        1.05334        1.39946
C         -0.74495        1.93840       -0.00695
O         -2.06269        2.44355        0.01004
H         -0.47798        2.45790        2.05799
H         -1.11333        0.81298        1.78207
H          1.18626        0.80760        2.29900
H         -0.00912        2.68376       -0.37181
H         -0.64441        1.03885       -0.64772
H         -2.30836        2.68921       -0.88968
