24
ETHYL_TERT-PENTYL_ETHER.gamout	Energy:    -351.1073718
O          0.55469        0.45133        0.31853
C         -0.77316        0.67114       -0.17916
C         -1.32074       -0.58586       -0.89587
C         -1.57826        0.99000        1.08142
C         -0.82029        1.87743       -1.12959
C         -1.27516       -1.88028       -0.08161
C          1.60607        0.21745       -0.59184
C          2.87531        0.00762        0.21561
H         -2.35997       -0.37451       -1.20382
H         -0.76064       -0.72520       -1.83677
H         -2.64669        1.12141        0.84965
H         -1.47208        0.18459        1.82159
H         -1.20120        1.91540        1.54229
H         -1.86311        2.12288       -1.38626
H         -0.36984        2.75905       -0.64721
H         -0.28766        1.68989       -2.07473
H         -1.61029       -2.73469       -0.69008
H         -1.92670       -1.83243        0.80543
H         -0.25445       -2.09178        0.27312
H          1.40673       -0.67445       -1.21929
H          1.73724        1.07216       -1.28451
H          3.74024       -0.15009       -0.44831
H          3.07361        0.88715        0.84816
H          2.77530       -0.86832        0.87576
