58
ETHYL_LINOLEATE.gamout	Energy:    -932.9408227
C         20.11516        6.84626        0.34895
O         18.84956        7.15050        0.93378
O         17.83110        6.21618       -0.83947
H         20.22344        5.76209        0.19081
H         20.22901        7.35007       -0.62359
H         20.87455        7.20652        1.05464
C         17.76348        6.77704        0.22690
C         16.48765        7.15975        0.94702
H          8.78416        8.25250        0.99426
H         -6.09641        7.77603        0.97981
H         -5.29929        7.76291       -0.61013
C         15.21846        6.73221        0.21151
H         16.53461        6.72516        1.96154
H         16.51767        8.25324        1.10397
C         13.92890        7.14608        0.92919
H         15.23817        5.63753        0.07005
H         15.23493        7.15630       -0.80735
C         12.64736        6.71060        0.20554
H         13.92722        6.73003        1.95491
H         13.91898        8.24579        1.05494
C         11.35376        7.14107        0.90989
H         12.65220        5.61044        0.08688
H         12.65413        7.11913       -0.82282
C         10.06921        6.70508        0.19165
H         11.34829        6.74071        1.94165
H         11.35119        8.24255        1.01797
C          8.77971        7.15078        0.89238
H         10.06482        5.60359        0.08402
H         10.07643        7.10313       -0.84107
C          7.49093        6.72412        0.17585
H          8.76807        6.75608        1.92593
C          6.22817        7.18353        0.88038
H         -5.37231        6.27468        0.35906
H         -3.83105        8.83508        1.16105
H         -3.90419        7.36081        2.12287
C          4.97297        6.96213        0.47038
H         -2.76200        6.09181        0.26336
H         -2.68869        7.56760       -0.69761
C          3.72259        7.44043        1.18552
H          7.48090        5.62287        0.06627
H          6.37844        7.75228        1.80992
C          2.42007        7.06179        0.50430
H         -0.11979        7.39760       -0.77097
H         -0.19357        5.92002        0.18097
C          1.19653        7.38808        0.93959
C         -3.91127        7.73497        1.08219
C         -2.68251        7.19275        0.34379
C         -0.11311        7.02019        0.26933
H         -1.34102        7.18067        2.04541
H          2.50817        6.47610       -0.42196
C         -1.34869        7.55654        1.00485
H         -1.27027        8.65710        1.08622
H          1.11430        7.97753        1.86475
C         -5.24012        7.36862        0.41885
H          3.72167        7.05181        2.22188
H          3.76651        8.54110        1.29365
H          7.50557        7.11933       -0.85790
H          4.81532        6.39712       -0.45940
