20
ETHYL_N-BUTYRATE.gamout	Energy:    -385.8157979
C          5.10732        2.86793        1.84218
C          3.60491        2.92640        1.66991
O          2.99934        1.93634        2.36122
O          3.00700        3.73404        1.00116
C          5.74196        1.63930        1.16970
C          1.56788        1.84253        2.27003
C          7.26117        1.59782        1.33121
C          1.12427        1.04494        1.05390
H          5.51626        3.79794        1.42102
H          5.32894        2.84936        2.92286
H          5.29162        0.72856        1.59772
H          5.48211        1.64233        0.09655
H          1.14459        2.85798        2.24622
H          1.26076        1.34529        3.20166
H          7.68890        0.70960        0.84052
H          7.73945        2.48653        0.88650
H          7.55155        1.56274        2.39478
H          1.57347        0.03912        1.05485
H          0.02813        0.93126        1.06169
H          1.40563        1.55755        0.12200
