13
ETHYL_CARBAMATE.gamout	Energy:    -323.3458494
O          2.98839        1.87583        0.95743
C          1.64947        2.06872        1.03197
C          3.79706        3.05452        1.04812
N          0.99795        0.87347        0.96309
O          1.11881        3.14974        1.15700
C          5.24737        2.63020        0.94941
H          3.58477        3.56818        2.00068
H          3.51604        3.75038        0.24030
H         -0.01079        0.88776        0.91436
H          1.50234        0.02182        0.75897
H          5.50861        1.93018        1.75861
H          5.45237        2.13627       -0.01345
H          5.90311        3.51130        1.03084
