20
ETHYLIDENE_DIACETATE.gamout	Energy:    -534.9077838
O         68.99431       29.79009        0.21445
C         67.65354       29.36759        0.07598
C         69.97353       28.94274       -0.21175
O         67.35378       28.60128        1.24887
C         66.77558       30.59452       -0.01731
C         71.33014       29.53739        0.05780
O         69.75475       27.87808       -0.72507
C         66.42506       27.62148        1.12556
C         66.31584       26.81661        2.39560
O         65.78710       27.43767        0.11998
H         67.55041       28.70902       -0.79659
H         65.72594       30.28820       -0.13186
H         67.06694       31.19613       -0.89117
H         66.87896       31.20831        0.89056
H         71.39594       30.54453       -0.38118
H         71.47197       29.64556        1.14492
H         72.10845       28.88631       -0.35790
H         66.21759       27.48171        3.26640
H         65.45465       26.14131        2.32609
H         67.23708       26.22737        2.53302
