29
ETHYL_GLUTARATE.gamout	Energy:    -652.6703960
C         69.90846       30.02930       -0.19427
C         68.61616       29.25537       -0.36932
O         68.86435       27.94516       -0.56729
O         67.50826       29.73274       -0.34189
C         69.69159       31.52827       -0.00244
C         67.73288       27.07546       -0.74743
C         70.99815       32.29477        0.18330
C         67.16843       26.59451        0.57998
C         70.79903       33.78520        0.37522
O         71.98264       34.40636        0.55112
O         69.73491       34.35384        0.37772
C         71.96192       35.83160        0.74120
C         71.97062       36.58099       -0.58236
H         70.44452       29.58093        0.66153
H         70.54254       29.81438       -1.07280
H         69.14097       31.93524       -0.86445
H         69.03461       31.69780        0.86432
H         66.96475       27.60541       -1.33017
H         68.11924       26.23389       -1.34092
H         71.57017       31.92663        1.05359
H         71.67650       32.16555       -0.67897
H         66.35361       25.87452        0.40071
H         67.94283       26.09277        1.18149
H         66.75800       27.43426        1.16047
H         71.07768       36.09986        1.33829
H         72.86960       36.05020        1.32260
H         72.03479       37.66546       -0.39717
H         72.83601       36.28557       -1.19640
H         71.04986       36.38818       -1.15302
