19
ETHYLAL.gamout	Energy:    -347.7211617
O         -1.08427        0.46092        0.46033
O          1.07609        0.46599       -0.44635
C         -1.77270       -0.23966       -0.56314
C          1.76003       -0.26571        0.55749
C         -0.00194        1.22152        0.01620
C         -2.92324       -1.00236        0.06410
C          2.92171       -0.99726       -0.08618
H         -2.14860        0.47968       -1.32039
H         -1.08252       -0.92688       -1.08661
H          2.12377        0.42873        1.34355
H          1.07064       -0.97578        1.05080
H         -0.29412        1.86784       -0.83372
H          0.29373        1.84602        0.88108
H         -3.49619       -1.54109       -0.70704
H         -2.55135       -1.73470        0.79767
H         -3.60450       -0.31237        0.58659
H          3.49412       -1.55581        0.67119
H          2.56176       -1.70973       -0.84495
H          3.59993       -0.28503       -0.58195
