29
EUCALYPTOL.gamout	Energy:    -466.4818282
C         -1.16163        0.60368       -0.29590
C         -2.26916        1.11572        0.66454
C         -1.00049        1.49672       -1.53285
H         -1.92787        1.55304       -2.11879
H         -0.22262        1.07654       -2.18874
H         -0.70099        2.52049       -1.25360
C          0.19964        0.47231        0.39616
H          0.93831        0.08112       -0.32022
H          0.16293       -0.22638        1.24318
H          0.55890        1.44769        0.76413
C         -3.62326        1.15668       -0.06215
C         -3.90740       -0.24781       -0.65295
H         -3.63446        1.92807       -0.84422
H         -4.40237        1.44557        0.66105
C         -2.77755       -1.21178       -0.24959
H         -3.95833       -0.21912       -1.75233
H         -4.87155       -0.64331       -0.29589
C         -2.94474       -2.58939       -0.87185
H         -3.88118       -3.06740       -0.54359
H         -2.10077       -3.23607       -0.58782
H         -2.95667       -2.51022       -1.96951
C         -2.42755        0.14555        1.84743
C         -2.69591       -1.27399        1.28617
H         -3.26682        0.48837        2.47232
H         -1.53932        0.15967        2.49294
H         -1.99423        2.11934        1.02353
H         -3.63507       -1.68963        1.68463
H         -1.89287       -1.97453        1.56179
O         -1.53681       -0.71015       -0.76200
