5
FLUOROMETHANE.gamout	Energy:    -139.5643159
F         -0.02871        1.62372        0.35395
C          1.13656        1.04755        0.79494
H          0.95846       -0.00977        1.05866
H          1.50751        1.58225        1.68693
H          1.90445        1.09510        0.00294
