6
FORMAMIDE.gamout	Energy:    -169.6796099
N         33.99408        0.02025       -0.00000
C         32.79142        0.65652       -0.00000
O         31.71168        0.11049       -0.00000
H         34.86555        0.53416       -0.00000
H         34.01746       -0.99419        0.00000
H         32.90948        1.77075        0.00000
