5
FORMIC_ACID.gamout	Energy:    -189.5221326
O          1.76684        1.25163        2.69181
C          1.12283        0.63314        1.68492
O          1.67518        0.24532        0.70168
H          1.13540        1.48279        3.38931
H          0.02343        0.52170        1.86557
