30
GENISTEIN.gamout	Energy:    -952.5369237
O          1.21361        1.92088        0.51109
O          2.38138       -2.54022       -0.76470
O         -0.06683       -1.78763       -0.62251
O          5.73700        0.67458        0.28865
O         -6.27644       -0.11134        0.03791
C          1.71929       -0.33057       -0.12774
C         -0.63318        0.43578        0.06563
C          2.14064        0.95472        0.26343
C          0.30580       -0.65475       -0.25928
C         -2.10535        0.25216        0.05347
C          2.72426       -1.31286       -0.38957
C         -0.09566        1.64110        0.40329
C          3.47753        1.30192        0.40534
C          4.07213       -0.97576       -0.24889
C          4.44249        0.31930        0.14552
C         -2.74350       -0.54519       -0.91283
C         -2.91658        0.89230        1.00937
C         -4.13036       -0.67576       -0.93435
C         -4.30258        0.77079        0.99305
C         -4.92331       -0.01618        0.01383
H         -0.69986        2.52414        0.61366
H          3.76718        2.30660        0.70668
H          4.82343       -1.74121       -0.45414
H         -2.14566       -1.07777       -1.65078
H         -2.45130        1.48094        1.80355
H         -4.60396       -1.29955       -1.69871
H         -4.92255        1.26356        1.74347
H          1.38067       -2.54994       -0.80401
H          6.30411       -0.08068        0.08254
H         -6.57126       -0.69195       -0.67625
