4
H3O+1.gamout	Energy:     -76.6062801
O         -5.86814        3.77506       -0.20034
H         -5.08307        3.24277        0.06665
H         -5.79997        4.72085        0.06686
H         -6.72101        3.36031        0.06693
