5
HCO3-1.gamout	Energy:    -264.1163445
O          1.55491       -0.62368        0.23116
O         -0.59897       -1.26293        0.04030
O         -0.02373        0.92513       -0.19859
C          0.16498       -0.29399        0.00133
H          1.96141        0.25107        0.15899
