14
HEPTAFLUOROBUTANOIC_ACID.gamout	Energy:   -1001.2105566
F         -0.29908        0.87686        1.56424
F         -1.10273        1.78803       -0.25619
F          0.66165        0.44831       -1.77951
F          1.56794        1.67575       -0.20633
F         -0.90251       -1.61582        0.54578
F         -1.79832       -0.67651       -1.19509
F         -2.58510       -0.26616        0.77999
O          2.14658       -0.52300        1.24454
O          1.99308       -1.58736       -0.73904
C         -0.50186        0.69495        0.24810
C          0.87760        0.54144       -0.45893
C         -1.47705       -0.49698        0.08121
C          1.73458       -0.67059       -0.01463
H          2.67481       -1.30731        1.47707
