22
HEPTANOATE-1.gamout	Energy:    -424.5013398
O         -3.97429        0.60795       -0.04542
O         -2.85058       -1.35747        0.05218
C          0.99778        0.58507       -0.01900
C          2.24702       -0.30748        0.00607
C         -0.33144       -0.18196       -0.00616
C          3.57698        0.45477       -0.00150
C         -1.58647        0.68899       -0.03273
C          4.81211       -0.44939        0.02512
C         -2.95476       -0.11092       -0.00657
H          1.04018        1.23584       -0.91511
H          1.03419        1.27554        0.84708
H          2.20868       -0.95999        0.89955
H          2.21957       -0.99379       -0.86251
H         -0.38361       -0.83640        0.88221
H         -0.37592       -0.87943       -0.86164
H          3.60873        1.14039        0.86642
H          3.62030        1.10585       -0.89492
H         -1.59932        1.33480       -0.93218
H         -1.59765        1.38831        0.82662
H          5.74760        0.13505        0.01870
H          4.83562       -1.12334       -0.84907
H          4.82418       -1.08570        0.92726
