10
HEXAFLUOROACETONE.gamout	Energy:    -787.6744575
C          2.59804        0.88964        0.06272
C          1.28152        1.71231       -0.00029
C         -0.04773        0.91056       -0.06281
O          1.29094        2.90567       -0.00047
F          3.63079        1.65598       -0.26077
F          2.77187        0.42498        1.30537
F          2.54490       -0.14938       -0.77847
F         -1.06774        1.69344        0.26115
F         -0.22916        0.44854       -1.30535
F         -0.01063       -0.12868        0.77876
