15
HEXAFLUOROACETYLACETONE.gamout	Energy:    -940.1235231
C         -1.36552       -0.03672        0.62664
C          0.06266       -0.52337        0.46075
C          0.95680        0.52283       -0.19249
C         -2.27531       -0.24282       -0.61259
O         -1.80641        0.44389        1.63173
C          2.35099       -0.00629       -0.62496
O          0.66155        1.67068       -0.36746
F         -2.51543       -1.56083       -0.75222
F         -3.42825        0.39297       -0.49011
F         -1.65651        0.17768       -1.72782
F          3.11793        0.96508       -1.09151
F          2.96170       -0.58428        0.42387
F          2.19545       -0.93944       -1.57883
H          0.47408       -0.73858        1.45988
H          0.10328       -1.45371       -0.12821
