10
HEXACHLORO-1,3-BUTADIENE.gamout	Energy:   -2912.1644759
C          1.11527        0.91472        0.35358
C          1.92748        1.58297       -0.49305
Cl         0.90372       -0.79607        0.31223
Cl         0.20601        1.73825        1.57499
C          2.09858        3.04735       -0.49321
Cl         2.79674        0.73839       -1.74784
C          2.91124        3.71465        0.35285
Cl         1.22992        3.89177       -1.74817
Cl         3.12395        5.42470        0.31159
Cl         3.81820        2.88975        1.57384
