24
HEXAMETHYLENEDIAMINE.gamout	Energy:    -347.2763559
C         17.90478        0.00615        0.01891
C         19.24499        0.74281        0.01730
N         16.79018        0.94768       -0.03300
C         20.46180       -0.18780        0.02207
C         21.80861        0.54509        0.02229
C         23.02546       -0.38545        0.01717
C         24.36567        0.35116        0.01919
N         25.48009       -0.59052       -0.03310
H         17.84936       -0.63751       -0.87781
H         17.87621       -0.68635        0.89127
H         19.28835        1.41024        0.90002
H         19.27237        1.40548       -0.86561
H         15.90209        0.44704       -0.07264
H         16.75927        1.50013        0.82593
H         20.40913       -0.85262       -0.86045
H         20.40920       -0.85473        0.90333
H         21.86088        1.21165        0.90386
H         21.86129        1.21031       -0.85994
H         22.99817       -1.04769       -0.86608
H         22.98214       -1.05336        0.89954
H         24.39432        1.04322        0.89190
H         24.42135        0.99528       -0.87721
H         26.36823       -0.08995       -0.07238
H         25.51081       -1.14335        0.82558
