29
HEXAMETHYLPHOSPHORAMIDE.gamout	Energy:    -819.5307737
P          0.66129       -0.08206        0.13288
O          2.10545       -0.43180        0.32454
N          0.15990        1.53207        0.33555
N         -0.30115       -0.88593        1.27474
N          0.20435       -0.41766       -1.46467
C          0.49535        2.50889       -0.69334
C          0.20948        2.10232        1.67769
C          0.22507       -2.09629        1.88705
C         -1.72843       -0.69550        1.44409
C          1.11087       -1.15717       -2.32844
C         -1.15294       -0.30229       -1.95553
H         -0.24235        3.33064       -0.68503
H          0.48013        2.03652       -1.68306
H          1.49880        2.95337       -0.53810
H         -0.52956        2.91808        1.76483
H         -0.02645        1.33616        2.42620
H          1.20769        2.51917        1.91647
H          0.02509       -2.09483        2.97479
H          1.31034       -2.13545        1.73052
H         -0.23146       -3.01354        1.46224
H         -1.98702       -0.68659        2.51954
H         -2.04196        0.26559        1.01685
H         -2.32526       -1.50149        0.97061
H          0.74999       -2.18759       -2.52275
H          2.09597       -1.21559       -1.84991
H          1.21872       -0.65031       -3.30667
H         -1.15824        0.13505       -2.97171
H         -1.74296        0.36231       -1.31109
H         -1.67144       -1.28112       -2.01423
