24
HEXSO4-1.gamout	Energy:    -934.6819437
O          2.92942       -1.11421       -0.52607
O          1.37278        0.75906        0.04737
S          2.75072        0.24483        0.03631
O          3.55258        0.51723        1.25228
O          3.46154        1.27390       -1.15733
C          4.82081        1.02415       -1.39730
C          5.31746        2.01239       -2.44947
C          6.79847        1.84064       -2.80679
C          7.31456        2.82987       -3.85997
C          8.79625        2.65921       -4.21840
C          9.29662        3.65309       -5.26983
H          4.96867       -0.01843       -1.74781
H          5.40660        1.13243       -0.46110
H          5.13248        3.03634       -2.07663
H          4.69280        1.89981       -3.35447
H          6.96799        0.80777       -3.16613
H          7.40705        1.93903       -1.88763
H          7.14685        3.86395       -3.50210
H          6.70764        2.73311       -4.78089
H          8.96691        1.62765       -4.57919
H          9.40612        2.75761       -3.30082
H          8.73723        3.55308       -6.21632
H         10.36436        3.50029       -5.49808
H          9.17558        4.69570       -4.92792
