31
HMIM+1.gamout	Energy:    -501.1051048
C          2.14812        0.56511        1.38660
C          3.61275        0.22799        1.08136
N          3.97614       -1.16638        1.41804
H          4.29386        0.87630        1.65075
H          3.84165        0.36450        0.01412
C          4.04474       -2.18710        0.55608
C          4.44940       -2.99352        2.56902
C          4.22511       -1.64959        2.68662
C          4.50958       -4.63890        0.63667
H          4.22616       -1.00696        3.56356
N          4.32940       -3.30974        1.23071
H          3.89444       -2.11693       -0.51984
H          4.68629       -3.74031        3.32287
H          3.70188       -4.83538       -0.08123
H          4.46643       -5.38951        1.43527
H          5.48341       -4.70280        0.12997
C          1.11868       -0.21163        0.55624
H          2.03916        1.64851        1.20676
H          1.96025        0.42115        2.46593
C         -0.33936        0.14904        0.87348
H          1.25555       -1.29828        0.72035
H          1.31386       -0.03757       -0.51913
C         -1.35929       -0.66509        0.06601
C         -2.81340       -0.31946        0.39011
H         -3.03457        0.73948        0.17616
H         -3.04329       -0.49896        1.45384
H         -3.50750       -0.93007       -0.20719
H         -1.17463       -0.51023       -1.01327
H         -1.18792       -1.74270        0.24899
H         -0.49822        1.22730        0.68736
H         -0.52378       -0.00156        1.95389
