39
HMPIP+1.gamout	Energy:    -526.7073574
C          2.37641        3.35463       -0.35488
C          3.83871        3.66126       -0.06569
C          4.63866        3.85104       -1.37004
H          4.27403        2.86277        0.55753
H          3.87348        4.56693        0.55833
C          4.04054        2.99708       -2.50599
H          5.69036        3.57818       -1.19740
H          4.63889        4.90984       -1.66850
C          3.39736        1.72690       -1.96520
H          3.30695        3.57467       -3.09264
H          4.81545        2.69687       -3.22710
N          2.18542        2.01588       -1.07939
H          4.11645        1.17289       -1.34717
H          3.05434        1.05865       -2.76369
H          1.94678        4.12777       -1.00575
H          1.76653        3.30527        0.55519
C          0.95173        2.11027       -1.92097
H          0.10443        2.38984       -1.28257
H          0.75683        1.14283       -2.39475
H          1.10152        2.87449       -2.69159
C          2.01549        0.92267       -0.02965
C          1.90013       -0.51463       -0.52948
H          1.11691        1.20580        0.53722
H          2.87826        1.02606        0.64364
C          1.75218       -1.47313        0.66691
H          2.79219       -0.80398       -1.10981
H          1.02962       -0.62967       -1.19525
C          1.66905       -2.95797        0.28479
H          2.60997       -1.32652        1.34675
H          0.85222       -1.19239        1.24488
C          0.42469       -3.36253       -0.51450
H          2.58053       -3.24649       -0.27236
H          1.69722       -3.54214        1.22001
C          0.33914       -4.86769       -0.77390
H          0.40622       -2.83327       -1.48540
H         -0.47857       -3.03057        0.03016
H          1.21744       -5.23313       -1.33117
H         -0.55664       -5.11883       -1.36189
H          0.28456       -5.43673        0.16915
