3
HYDROGEN_SELENIDE.gamout	Energy:   -2402.3488354
Se        -4.07954        0.00336        2.88940
H         -2.65344       -0.37624        2.89248
H         -3.84162        1.00937        1.83620
