4
HYDROGEN_PEROXIDE.gamout	Energy:    -151.3548930
O          0.88282       -0.08137        0.06953
O          2.33368       -0.07743       -0.00593
H          0.68399       -0.03228       -0.87791
H          2.53251       -0.12652        0.94151
