54
HYDROXYPROGESTERONE.gamout	Energy:   -1042.5482667
O         -3.07054       -0.01175       -0.99864
O         -4.09599       -1.18534        1.91375
O          6.53263       -0.35630       -1.62510
C         -1.60935        0.10036        0.94259
C         -0.82449        1.23713        0.23853
C          0.67723        1.27531        0.56072
C          1.31308       -0.10211        0.21846
C         -3.04023        0.38599        0.38155
C          2.86535       -0.17045        0.49162
C         -0.98659       -1.23789        0.53294
C          0.52090       -1.27516        0.84230
C         -1.69402        2.48484        0.48243
C         -3.14991        1.93415        0.50492
C          1.40131        2.38459       -0.21020
C         -1.59286        0.25059        2.47561
C          3.54829        1.02872       -0.16135
C          2.91195        2.37802        0.05136
C          3.43472       -1.47830       -0.10854
C          3.17122       -0.11911        2.00576
C         -4.22922       -0.37397        1.02503
C          4.95852       -1.51498       -0.22911
C          4.70531        0.92159       -0.85309
C          5.49572       -0.31656       -0.98673
C         -5.59652       -0.10354        0.42065
H         -0.90048        1.01214       -0.83940
H          0.80340        1.47387        1.64105
H          1.20345       -0.20199       -0.87868
H         -1.14588       -1.38002       -0.54675
H         -1.48892       -2.07074        1.04722
H          0.67322       -1.28778        1.93396
H          0.92393       -2.23015        0.47498
H         -1.55795        3.24906       -0.29658
H         -1.44636        2.96619        1.44265
H         -3.67325        2.21611        1.43149
H         -3.76149        2.33511       -0.32128
H          0.99419        3.37339        0.05354
H          1.22277        2.25141       -1.29342
H         -2.12668       -0.58591        2.93807
H         -0.56563        0.26288        2.86302
H         -2.06945        1.18008        2.81912
H          3.09363        2.68066        1.10084
H          3.41340        3.13176       -0.57263
H          3.00506       -1.61277       -1.11624
H          3.09710       -2.33434        0.49052
H          2.75576       -0.99723        2.51883
H          4.25564       -0.10330        2.18520
H          2.74995        0.77718        2.48168
H         -3.42118        0.71546       -1.52662
H          5.30310       -2.42489       -0.73951
H          5.43814       -1.51774        0.76736
H          5.15272        1.80422       -1.31693
H         -5.85809        0.96612        0.47522
H         -5.59621       -0.39106       -0.64163
H         -6.34621       -0.69297        0.96293
