15
ISO-VALERONITRILE.gamout	Energy:    -250.3435241
C         16.77796        0.14335        0.16326
C         18.24794        0.53332       -0.01678
C         18.40400        2.03188       -0.28577
C         19.05678        0.08575        1.22379
C         20.50097        0.30330        1.10639
N         21.64106        0.48031        0.99615
H         16.18778        0.41961       -0.72442
H         16.65993       -0.94110        0.31961
H         16.33341        0.65921        1.03189
H         18.65035       -0.01917       -0.88489
H         19.45861        2.31254       -0.43004
H         17.85135        2.32269       -1.19260
H         18.00575        2.62878        0.55337
H         18.69923        0.62327        2.12043
H         18.89171       -0.98819        1.41368
