23
ISOAMYL_ACETATE.gamout	Energy:    -425.0710324
C          5.65437       -1.45806       -0.13008
C          5.25163       -0.03258       -0.52855
H         -0.43183        1.12134        1.33369
O          1.55854        0.16447        0.30909
H          6.11389        1.98428       -0.50314
H          4.92593       -2.20988       -0.47108
H          6.63058       -1.72899       -0.56381
H          5.74233       -1.54940        0.96690
C          3.92660        0.40715        0.11892
H          6.55413        0.98508        0.90310
H          7.31398        0.68037       -0.67636
O          0.27602       -1.41968       -0.64021
C         -0.76714        0.26417        0.73670
H         -1.48599        0.59797       -0.02766
H         -1.29339       -0.45881        1.37898
C          0.38241       -0.43766        0.05301
H          2.80001       -1.47282        0.04496
H          2.59535       -0.44993       -1.38460
C          2.72310       -0.42575       -0.28866
H          4.02640        0.38180        1.21963
H          3.72150        1.45805       -0.14801
C          6.36808        0.96001       -0.18495
H          5.10943       -0.01331       -1.62643
