14
ISOBUTANE.gamout	Energy:    -158.2198178
C          2.68255        1.23805        0.70958
C          1.99434        0.97373        2.05326
C          2.32034        2.07193        3.07120
C          0.48085        0.80967        1.88039
H          2.48189        0.42978       -0.01294
H          3.77575        1.31919        0.82661
H          2.32625        2.18176        0.25940
H          2.39326        0.02022        2.44970
H          1.85806        1.86278        4.05004
H          1.94506        3.05278        2.72936
H          3.40735        2.16793        3.22691
H          0.02595        1.73370        1.48176
H         -0.01162        0.58472        2.84062
H          0.24134       -0.00730        1.18038
