14
ISOBUTYRIC_ACID.gamout	Energy:    -307.3107909
C          0.06946       19.87233       -0.11313
C          1.33400       20.73606        0.00700
C          0.99707       22.23422        0.04619
C          2.15121       20.33630        1.22181
O          3.27450       19.89726        1.20283
O          1.47537       20.52780        2.37807
H         -0.47584       20.13087       -1.03383
H          0.31577       18.79983       -0.15594
H         -0.60211       20.03579        0.74395
H          1.99233       20.53570       -0.85245
H          1.90691       22.84970        0.12392
H          0.46879       22.52695       -0.87414
H          0.34936       22.46907        0.90515
H          2.07077       20.24850        3.09463
