23
ISOBUTYL_PROPIONATE.gamout	Energy:    -425.0744227
O          2.81588        1.61118       -0.01132
C          1.56141        1.48535        0.46233
C          0.65878        2.56738       -0.09359
O          1.22514        0.61855        1.23144
C          3.78265        0.65237        0.43903
C         -0.78723        2.43880        0.36826
C          5.12260        0.97009       -0.21146
C          5.63180        2.35819        0.18592
C          6.13689       -0.12429        0.13342
H          1.09696        3.53725        0.20058
H          0.74502        2.53569       -1.19326
H          3.84827        0.69265        1.54072
H          3.43501       -0.35904        0.17260
H         -1.40299        3.24708       -0.05346
H         -1.22054        1.47642        0.05619
H         -0.85788        2.48591        1.46533
H          4.95850        0.96075       -1.30493
H          6.57296        2.59537       -0.33382
H          4.89698        3.13663       -0.06594
H          5.82536        2.41239        1.27161
H          7.10406        0.06715       -0.35704
H          5.78931       -1.11862       -0.19009
H          6.32035       -0.17051        1.22083
