10
ISOCROTONOLACTONE.gamout	Energy:    -304.8768107
O         -0.01224        1.12046       -0.00029
O         -2.00022        0.04200        0.00019
C          1.36013        0.76023       -0.00042
C          1.37274       -0.74111       -0.00019
C          0.10966       -1.18136        0.00009
C         -0.80366       -0.00483        0.00002
H          1.85475        1.18755        0.89169
H          1.85452        1.18731       -0.89277
H          2.28870       -1.33516       -0.00020
H         -0.25989       -2.20555        0.00030
