18
ISOPHTHALIC_ACID.gamout	Energy:    -608.6398986
O          0.97921        3.46736        0.13655
C          1.62436        4.65183        0.11268
O          1.03777        5.70895        0.11680
C          3.10862        4.50663        0.08127
C          3.73464        3.25346        0.07744
C          3.88260        5.67581        0.05521
C          5.13252        3.17413        0.04757
C          5.27433        5.59487        0.02535
C          5.85369        1.86828        0.04237
C          5.89929        4.34818        0.02154
O          5.02161        0.80664        0.06965
O          7.05635        1.74787        0.01660
H          0.02873        3.67212        0.15561
H          3.13612        2.34429        0.09775
H          3.36871        6.63849        0.05885
H          5.87468        6.50689        0.00500
H          6.98656        4.25768       -0.00144
H          5.58568        0.01452        0.06366
