24
ISOPROPYLCYCLOPENTANE.gamout	Energy:    -314.0379525
C         -1.03020        0.86676        0.00517
C         -1.16003       -0.68286       -0.05369
C          0.27786       -1.21701       -0.23598
C          1.19750       -0.11397        0.32589
C          0.47757        1.16602       -0.14567
H         -1.62304        1.36650       -0.77640
H         -1.40378        1.24849        0.96951
H         -1.59951       -1.06933        0.88060
H         -1.82175       -1.01650       -0.86773
H          0.42495       -2.19524        0.24589
H          0.50063       -1.35030       -1.31078
H          1.14026       -0.15039        1.43334
C          2.68447       -0.22624       -0.07189
H          0.72751        1.34413       -1.20797
H          0.78127        2.06599        0.40973
H          2.72587       -0.20518       -1.17919
C          3.31145       -1.54906        0.39334
C          3.51712        0.95472        0.44810
H          3.48833        1.00489        1.55105
H          3.15858        1.92068        0.06106
H          4.57335        0.85132        0.15029
H          2.79981       -2.42562       -0.03273
H          3.27081       -1.63977        1.49319
H          4.37101       -1.60759        0.09549
