15
ISOPROPYL_METHYL_SULFIDE.gamout	Energy:    -556.2315192
S          2.18394        2.60904        0.03400
C          0.97993        2.60644        1.40207
C          3.76502        2.14514        0.87264
C          3.73652        0.72927        1.44955
C          4.22068        3.18811        1.89362
H          1.22497        3.35045        2.17526
H          0.01495        2.88153        0.95142
H          0.87437        1.61301        1.86424
H          4.46486        2.16169        0.01919
H          3.44283       -0.00566        0.68558
H          4.73225        0.44949        1.83499
H          3.02840        0.65016        2.29095
H          5.22214        2.93505        2.28244
H          4.26752        4.19077        1.44361
H          3.53875        3.23193        2.75886
