13
ISOPROPYLAMINE.gamout	Energy:    -174.2387556
C         -1.03110       -0.18504       -0.14947
C         -0.99568       -1.69083        0.11607
H         -0.10291       -2.14097       -0.34304
H         -1.89107       -2.19374       -0.28259
H         -0.95606       -1.89300        1.20176
C         -2.28757        0.46187        0.45220
H         -3.21199        0.02603        0.03625
H         -2.31094        1.54660        0.25302
H         -2.31428        0.32184        1.54791
N          0.22878        0.40653        0.30896
H         -1.06443       -0.03584       -1.24551
H          0.23274        1.41227        0.13123
H          0.30708        0.30406        1.32406
