17
ISOVALERIC_ACID.gamout	Energy:    -346.5687008
C         34.92644       30.07803       -0.03898
C         33.65356       29.22537       -0.08089
C         34.68174       31.56150        0.13617
C         32.83036       29.49099       -1.34545
C         33.99742       27.73879        0.05447
O         35.79599       32.28274       -0.11177
O         33.64474       32.07585        0.47721
H         35.56708       29.77216        0.80809
H         35.55030       29.93575       -0.93860
H         33.04184       29.52513        0.78776
H         31.90364       28.89537       -1.34071
H         32.54293       30.55013       -1.42046
H         33.39688       29.21942       -2.25369
H         33.08493       27.12182        0.05540
H         34.54291       27.53155        0.98954
H         34.62923       27.39505       -0.78336
H         35.56482       33.21345        0.05227
