8
ISOXAZOLE.gamout	Energy:    -245.7175642
C          2.76674        0.93988        0.02375
C          1.34225        0.87449        0.06585
C          0.98089        2.19017        0.06456
N          3.20201        2.17610       -0.00015
O          2.07136        2.96754        0.02560
H          3.48859        0.12263        0.01019
H          0.70269       -0.00315        0.09249
H          0.02416        2.70838        0.08776
