5
KETENE.gamout	Energy:    -152.4068952
C          2.36579        0.24462        0.93950
C          1.11799        0.66506        0.99305
O          0.01516        1.03663        1.04105
H          2.89461        0.00385        1.86284
H          2.86056        0.14063       -0.02725
