33
KETOPROFEN.gamout	Energy:    -842.7254154
O          2.07920       -2.33569       -0.00765
O         -2.16167        2.50154        0.02630
O          3.93547       -1.89585       -1.18345
C          3.24191       -0.31342        0.52185
C          2.25526        0.73256        0.00734
C          0.86903        0.57802        0.16491
C         -0.02809        1.55046       -0.30122
C          2.72980        1.87492       -0.64919
C          3.08654       -0.61279        2.02161
C          0.47498        2.70361       -0.92806
C          1.84572        2.85513       -1.11286
C         -1.51598        1.47126       -0.07193
C          3.15449       -1.57880       -0.32308
C         -2.21943        0.14462        0.04144
C         -1.78618       -1.01867       -0.61393
C         -3.42210        0.10536        0.76762
C         -2.53452       -2.19470       -0.53378
C         -4.15713       -1.07396        0.86327
C         -3.71449       -2.22901        0.21124
H          4.25567        0.06658        0.33387
H          0.48660       -0.30956        0.66903
H          3.80562        2.00275       -0.79381
H          3.26721        0.30072        2.60645
H          2.07946       -0.98333        2.25893
H          3.81156       -1.37532        2.34507
H         -0.22724        3.47023       -1.25958
H          2.23335        3.74427       -1.61434
H         -0.87486       -1.00421       -1.21268
H         -3.76904        1.02196        1.24698
H         -2.19402       -3.08978       -1.05834
H         -5.08332       -1.09090        1.44177
H         -4.29211       -3.15381        0.27807
H          2.10078       -3.10818       -0.59868
