24
KETO_D_FRUCTOSE.gamout	Energy:    -686.3031561
C          0.07073       -0.08048       -0.18549
C          1.49009        0.35250       -0.52182
H         -0.14611        0.15962        0.87432
O         -0.77678        0.64821       -1.06216
H         -0.01614       -1.17285       -0.32338
C          2.54364       -0.26819        0.39627
O          1.58741        1.77080       -0.44403
H          1.72381        0.00852       -1.54750
O          2.61340       -1.62986        0.04054
H          2.21931       -0.15073        1.44972
C          3.90118        0.49143        0.25730
H          3.89832        1.28926        1.03203
O          4.14069        1.04086       -1.01496
C          5.07496       -0.40125        0.62079
C          6.38437       -0.18740       -0.10143
H          6.65796        0.88433       -0.02377
H          6.16782       -0.35088       -1.17743
O          7.38646       -1.02240        0.38416
H         -1.69361        0.54277       -0.78104
H          6.95821       -1.58729        1.05182
H          3.43770        1.69940       -1.15275
H          0.77042        2.10759       -0.84713
H          3.18107       -2.06230        0.69629
O          4.98414       -1.27449        1.46949
