32
KETOROLAC.gamout	Energy:    -858.7393962
O         -3.00028        1.83857        0.11721
O         -4.99653        0.88287        0.48307
O          2.08223       -2.11260       -1.39968
N         -0.78685       -0.59795        0.20631
C         -2.99155       -0.36862        1.02530
C         -1.96520        0.00421        2.13572
C         -0.62261        0.21599        1.40917
C         -2.08411       -0.94595       -0.02381
C          0.03249       -1.20976       -0.73096
C         -2.14560       -1.77778       -1.13347
C         -0.81329       -1.95057       -1.56641
C         -3.79505        0.82403        0.52340
C          1.50574       -1.20507       -0.81564
C          2.31661       -0.09004       -0.21140
C          1.90922        1.24993       -0.27437
C          3.57786       -0.39538        0.32593
C          2.73379        2.26368        0.21633
C          4.39225        0.61470        0.83441
C          3.97059        1.94754        0.78275
H         -3.73152       -1.09788        1.37769
H         -1.88851       -0.84510        2.83067
H         -2.26236        0.88804        2.71681
H         -0.47462        1.27213        1.13969
H          0.24202       -0.11409        2.00101
H         -3.04437       -2.21299       -1.56458
H         -0.45344       -2.55353       -2.39714
H         -3.58624        2.54642       -0.20105
H          0.95878        1.50586       -0.74696
H          3.90714       -1.43625        0.32934
H          2.41445        3.30601        0.14651
H          5.36483        0.36567        1.26490
H          4.61248        2.74111        1.17231
