13
L-ALANINE.gamout	Energy:    -323.3293585
C          3.09840        2.84324        1.80950
C          1.97064        2.10954        1.09971
C          2.11174        0.59938        1.38922
N          0.71021        2.70984        1.50130
O          4.26329        2.75167        1.14016
O          2.99826        3.40055        2.87471
H          2.12313        2.26201        0.01638
H          2.02034        0.40266        2.47025
H          1.31416        0.04602        0.86872
H          3.07972        0.20725        1.03917
H         -0.06915        2.09080        1.28379
H          0.71558        2.86372        2.51096
H          4.93615        3.19338        1.68685
