31
L-MENTHOL.gamout	Energy:    -467.6871154
C         -4.98150        2.76804        1.01900
C         -4.63014        2.36739       -0.42009
H         -5.43800        1.92695        1.56503
H         -5.70689        3.59760        1.02060
H         -4.09915        3.10752        1.58597
C         -5.89083        1.92921       -1.18088
H         -6.32834        1.02855       -0.72755
H         -5.66201        1.69970       -2.23488
H         -6.64810        2.73088       -1.17331
C         -3.46856        1.33656       -0.52088
H         -4.25723        3.27777       -0.92617
C         -2.08929        2.01385       -0.39976
C         -0.92409        1.03898       -0.59161
H         -2.00592        2.49322        0.59321
H         -2.02171        2.82687       -1.14060
C         -0.99165       -0.14644        0.37863
H          0.03645        1.56857       -0.47500
H         -0.94184        0.64958       -1.62722
C         -2.36970       -0.80973        0.26909
C         -3.52929        0.17194        0.47867
H         -2.45198       -1.62681        1.00949
H         -2.48741       -1.27425       -0.72742
H         -3.52593        0.88535       -1.52927
C          0.14888       -1.14135        0.15419
H         -0.89449        0.25589        1.40620
H          1.12986       -0.64960        0.25546
H          0.09841       -1.58166       -0.85675
H          0.11439       -1.96901        0.88150
O         -4.78131       -0.48621        0.34723
H         -3.43287        0.59805        1.49982
H         -4.81486       -1.20388        0.99336
