24
L-TYROSINE.gamout	Energy:    -629.2040352
C          6.19247        1.81109       -0.05168
C          7.03850        0.76363       -0.44059
C          6.44226       -0.39501       -0.96431
C          5.05984       -0.50992       -1.09254
C          4.22862        0.54583       -0.69577
C          4.80571        1.71138       -0.17454
O          2.88664        0.38989       -0.84286
C          8.53693        0.87408       -0.28443
C          9.09073        0.46088        1.09727
N         10.52944        0.70360        1.12630
C          8.75818       -1.00415        1.37709
O          9.23625       -1.93553        0.77225
O          7.88861       -1.16408        2.38990
H          6.62416        2.73203        0.35029
H          7.07673       -1.22625       -1.28258
H          4.60097       -1.40991       -1.50556
H          4.16633        2.54591        0.13059
H          2.43453        1.18699       -0.53644
H          9.03967        0.25225       -1.04370
H          8.87144        1.90919       -0.44524
H          8.60781        1.07171        1.87495
H         10.90141        0.54135        2.06291
H         10.98944        0.02189        0.51862
H          7.72881       -2.12075        2.47901
