22
LEUCINE.gamout	Energy:    -441.0981651
C          1.33719        1.62826        0.74964
C          2.81062        1.20843        0.64365
C          3.47008        1.79441       -0.62992
N          3.14964       -0.21968        0.71947
C          0.36736        0.97290       -0.25918
O          3.11754        2.82311       -1.14596
O          4.49890        1.06578       -1.06766
C         -0.30188       -0.28351        0.31316
C         -0.69110        1.97996       -0.72387
H          1.33203        2.71777        0.60148
H          0.98219        1.45116        1.78021
H          3.12268       -0.57059        1.67583
H          2.49867       -0.78455        0.17322
H          0.94689        0.67825       -1.15520
H          4.50241        0.26974       -0.48276
H         -0.90074       -0.03303        1.20594
H          0.43002       -1.04689        0.62342
H         -0.97622       -0.74858       -0.42298
H         -0.21773        2.83550       -1.22908
H         -1.26921        2.36833        0.13304
H         -1.40441        1.51939       -1.42663
H          3.35154        1.69875        1.47291
