24
LYSINE.gamout	Energy:    -496.3688404
C          3.53612        1.78950        0.03107
C          4.78413        1.11499        0.66065
C          6.01865        1.94171        0.32179
N          5.02164       -0.27912        0.30130
C          2.21220        1.11061        0.39811
O          6.53776        2.75712        1.04114
O          6.45638        1.69650       -0.93278
C          0.97871        1.79546       -0.19990
C         -0.34238        1.12042        0.17293
N         -1.46704        1.77894       -0.48403
H          3.65805        1.80313       -1.06744
H          3.51061        2.84569        0.35491
H          4.23875       -0.86343        0.58955
H          5.11900       -0.37283       -0.71047
H          2.11569        1.07033        1.49951
H          2.23317        0.05945        0.05575
H          7.23917        2.25720       -1.07072
H          1.05295        1.82508       -1.30097
H          0.94783        2.85165        0.13079
H         -0.42225        1.07744        1.28317
H         -0.31756        0.06952       -0.16897
H         -1.58099        2.72658       -0.11954
H         -2.33802        1.29195       -0.27260
H          4.69494        1.17701        1.75734
