15
M-CHLOROBENZOIC_ACID.gamout	Energy:    -879.6769713
Cl         7.38172        3.24023       -0.86125
C          6.30748        1.88676       -0.62153
O          5.80090       -2.68711        0.82438
C          6.59904       -1.77679        0.22278
O          7.74583       -2.03767       -0.02282
C          5.97019       -0.44804       -0.10059
C          6.83470        0.63531       -0.30947
C          4.58607       -0.27183       -0.24107
C          4.92655        2.07281       -0.75056
C          4.07171        0.98528       -0.56488
H          4.96262       -2.28102        1.08429
H          7.91033        0.48013       -0.22427
H          3.89825       -1.11449       -0.13205
H          4.53482        3.05988       -1.00016
H          2.99402        1.11937       -0.68253
