16
M-CRESOL.gamout	Energy:    -346.3247080
C          0.07550       -0.89165        0.15744
C         -1.16681       -0.25918        0.02547
C         -1.20497        1.13779       -0.10424
C         -0.02088        1.87839       -0.10087
C          1.21539        1.24530        0.03086
C          1.26255       -0.15040        0.16101
O          2.43189       -0.83200        0.29358
C         -2.43412       -1.07910        0.02459
H          0.14385       -1.97715        0.26077
H         -2.16604        1.64675       -0.20806
H         -0.05928        2.96604       -0.20237
H          2.14228        1.82771        0.03328
H          3.16913       -0.20770        0.28074
H         -2.54337       -1.64994        0.96227
H         -3.32490       -0.44367       -0.08708
H         -2.43773       -1.81120       -0.80080
