24
M-CYMENE.gamout	Energy:    -388.9603600
C          0.94060        2.87248        0.61370
C          1.68402        1.85127        1.48948
C          1.27108        1.97817        2.96434
C          3.19315        1.94321        1.31293
C          3.89798        3.10741        1.66228
C          3.91945        0.86479        0.79452
C          5.28555        3.21475        1.50993
C          5.30555        0.95185        0.63202
C          6.02235        4.47131        1.90639
C          5.98471        2.11587        0.98583
H          1.18745        3.90702        0.90428
H          1.20311        2.75329       -0.44907
H         -0.15056        2.75039        0.71178
H          1.38221        0.84540        1.14968
H          0.18268        1.84651        3.07907
H          1.77339        1.22076        3.58605
H          1.53044        2.96938        3.37226
H          3.35290        3.96466        2.06782
H          3.39582       -0.05320        0.51295
H          5.85821        0.10191        0.22371
H          6.67975        4.29410        2.77536
H          6.66471        4.83837        1.08859
H          5.32648        5.27951        2.17629
H          7.06884        2.17659        0.85474
