16
M-DINITROBENZENE.gamout	Energy:    -640.4523727
C          6.31519        1.90256       -0.68157
C          6.82840        0.64875       -0.34722
C          4.92976        2.07311       -0.72930
C          4.07762        1.00350       -0.44615
C          4.63461       -0.23268       -0.11603
C          6.00936       -0.43839       -0.05891
N          3.73305       -1.37087        0.18595
N          8.29847        0.46204       -0.29558
O          8.70989       -0.64548        0.00034
O          8.99270        1.43045       -0.55310
O          2.53346       -1.16240        0.12621
O          4.25356       -2.43405        0.47263
H          7.00481        2.71795       -0.89724
H          4.51104        3.04771       -0.98925
H          2.99341        1.10585       -0.47542
H          6.42619       -1.40907        0.20036
