19
M-ETHYLPHENOL.gamout	Energy:    -385.5792099
C         -0.71313        0.65041        0.17106
C         -1.12837       -0.68883        0.20765
C          0.64748        0.93856        0.06895
C          1.59607       -0.08620        0.00262
C         -0.17830       -1.71305        0.14029
C          1.19096       -1.42895        0.03718
C          2.17059       -2.58886       -0.03370
C          3.65287       -2.23477       -0.14469
H          1.88505       -3.22555       -0.89102
H          2.01563       -3.22529        0.85670
H          3.86725       -1.64835       -1.05307
H          4.26240       -3.15067       -0.19156
H          4.00066       -1.64886        0.72148
O         -2.43703       -1.04600        0.30751
H         -2.98376       -0.25025        0.34528
H         -0.53531       -2.74558        0.17109
H         -1.45179        1.45656        0.22284
H          0.97483        1.98104        0.04006
H          2.65294        0.16899       -0.07704
