32
M-TERPHENYL.gamout	Energy:    -693.4206805
C          3.87984        2.95362        5.95349
C          4.86595        3.62220        5.20568
C          5.62175        4.61946        5.84816
C          5.10597        3.27587        3.77627
C          3.63363        3.25122        7.30546
C          5.39126        4.92762        7.18924
C          5.40085        4.27199        2.82684
C          5.04383        1.94174        3.33363
C          4.40867        4.25355        7.91487
C          2.57728        2.53337        8.07147
C          5.62406        3.94628        1.48786
C          5.26570        1.61571        1.99476
C          2.77749        2.17947        9.41824
C          1.35046        2.18875        7.47517
C          5.55714        2.61646        1.06463
C          1.79057        1.50761       10.14056
C          0.36360        1.51568        8.19676
C          0.57813        1.17162        9.53333
H          3.28579        2.17747        5.46763
H          6.41210        5.13715        5.30022
H          5.98567        5.70409        7.67609
H          5.43013        5.31874        3.13790
H          4.84372        1.14557        4.05410
H          4.22135        4.52452        8.95617
H          5.84314        4.73936        0.76867
H          5.21912        0.57062        1.67898
H          3.73074        2.41217        9.89838
H          1.15618        2.47570        6.43938
H          5.73148        2.36135        0.01620
H          1.97452        1.23726       11.18325
H         -0.58383        1.26688        7.71237
H         -0.19504        0.64513       10.09853
