9
MALEIC_ANHYDRIDE.gamout	Energy:    -378.8239854
C          0.89984        2.84251        0.05658
O         -0.06209        3.54633        0.06400
O          2.19493        3.33708        0.02643
C          0.99334        1.35117        0.07561
C          3.09045        2.27838        0.02465
C          2.28905        1.01760        0.05689
O          4.27252        2.43035        0.00200
H          0.10921        0.71477        0.10048
H          2.75695        0.03354        0.06217
