8
MESO3-1.gamout	Energy:    -663.2588201
C          1.72528        0.00014        0.00059
S         -0.11342        0.00003        0.00030
O         -0.46570       -0.01659       -1.44755
O         -0.46847       -1.24493        0.73808
O         -0.46891        1.26146        0.70953
H          2.07821        0.89751       -0.52964
H          2.08151        0.00942        1.04174
H          2.07761       -0.90703       -0.51316
