23
METHYL_P-COUMARATE.gamout	Energy:    -611.9610725
C         -0.73895        1.22308        0.06297
C         -1.22724       -0.07745        0.01375
C          0.64224        1.46710       -0.02504
C         -0.36159       -1.18047       -0.12469
C          1.02171       -0.91124       -0.21111
C         -0.83208       -2.56210       -0.18115
C          1.52298        0.38513       -0.16303
O          1.16799        2.71354        0.01778
C         -2.10215       -3.01689       -0.11541
C         -2.37741       -4.46457       -0.19298
C         -4.08853       -6.07940       -0.17725
O         -3.70583       -4.70993       -0.10949
O         -1.55341       -5.34479       -0.31597
H         -1.43292        2.06225        0.17078
H         -2.30498       -0.23614        0.08430
H          1.71918       -1.74623       -0.31907
H         -0.05753       -3.32941       -0.29122
H          2.59372        0.58422       -0.23047
H          0.45847        3.36325        0.11428
H         -2.96905       -2.36177       -0.00553
H         -3.63438       -6.65639        0.64363
H         -5.18296       -6.09910       -0.09545
H         -3.76941       -6.52943       -1.13045
