59
METHYL_OCTADECANOATE.gamout	Energy:    -896.1414327
C          0.57988       -0.28874        0.33818
C          2.10623       -0.22997        0.25483
C          2.63434        0.08043       -1.15085
C          4.16425        0.13888       -1.24478
C          4.69788        0.43200       -2.65401
C          6.22919        0.48470       -2.74416
C          6.76945        0.75307       -4.15627
C          8.30171        0.79797       -4.23959
C          8.85304        1.03393       -5.65346
C         10.38642        1.06707       -5.72537
C         10.95288        1.26437       -7.13910
C         12.48726        1.28275       -7.19616
C         13.06934        1.44105       -8.60821
C         14.60439        1.44520       -8.65166
C         15.19695        1.57108      -10.06254
C         16.73040        1.56058      -10.09333
C         17.31067        1.66655      -11.51360
C         18.82366        1.65417      -11.55642
O         19.30867        0.50898      -11.02500
O         19.51551        2.53506      -12.00395
C         20.72416        0.33636      -10.96478
H          0.24093       -0.51869        1.36085
H          0.16963       -1.06546       -0.32974
H          0.12258        0.67200        0.04555
H          2.53064       -1.19213        0.59667
H          2.48445        0.53161        0.96183
H          2.20903        1.04272       -1.49386
H          2.25393       -0.68257       -1.85662
H          4.58675       -0.82017       -0.88986
H          4.54222        0.90822       -0.54481
H          4.27767        1.39154       -3.01013
H          4.31861       -0.33798       -3.35254
H          6.64808       -0.46968       -2.37283
H          6.60742        1.26371       -2.05509
H          6.35404        1.70778       -4.53046
H          6.39081       -0.02747       -4.84332
H          8.71396       -0.15073       -3.84678
H          8.67962        1.58857       -3.56366
H          8.44605        1.98259       -6.05159
H          8.47534        0.24054       -6.32615
H         10.78793        0.12476       -5.30652
H         10.76430        1.87025       -5.06445
H         10.55813        2.20628       -7.56495
H         10.57562        0.45765       -7.79601
H         12.87549        0.34709       -6.75033
H         12.86549        2.09820       -6.55068
H         12.68793        2.37635       -9.06035
H         12.69144        0.62271       -9.25015
H         14.98188        0.51582       -8.18423
H         14.98400        2.27130       -8.02089
H         14.82749        2.50125      -10.53447
H         14.81797        0.74430      -10.69284
H         17.10717        0.63520       -9.62571
H         17.11739        2.39609       -9.48192
H         16.98891        2.59430      -12.00906
H         16.95277        0.81731      -12.12259
H         21.23327        1.21767      -11.37711
H         20.99191       -0.56162      -11.54262
H         21.01260        0.18640       -9.91299
