21
METHYL_PENTYL_SULFIDE.gamout	Energy:    -634.7434791
S         -2.69222       -0.73491        0.01000
C          1.34176        0.36409       -0.00149
C          0.06561       -0.48609        0.00417
C          2.63108       -0.46421       -0.00059
C         -1.21496        0.35027        0.00305
C          3.90453        0.38336       -0.00637
C         -4.00688        0.52404        0.00738
H          1.33871        1.03447        0.87874
H          1.33545        1.02746       -0.88698
H          0.06334       -1.14633        0.89013
H          0.06037       -1.15330       -0.87656
H          2.63424       -1.12817        0.88346
H          2.63093       -1.13509       -0.87942
H         -1.25209        0.99891       -0.88989
H         -1.24906        1.00603        0.89091
H          3.95352        1.03128       -0.89823
H          3.95698        1.03841        0.88008
H          4.80700       -0.24835       -0.00559
H         -3.95765        1.16235        0.90421
H         -4.96690       -0.01282        0.01124
H         -3.96084        1.15504       -0.89476
