18
METHYL_N-BUTYL_SULFIDE.gamout	Energy:    -595.4862671
C          3.71666        1.58230        3.14872
S          2.12807        1.01828        3.86676
C          0.98501        2.29333        3.24631
C          3.85690        1.38400        1.63726
C          5.19109        1.88355        1.06047
C          6.42371        1.11135        1.53689
H          4.47332        0.99761        3.69568
H          3.87243        2.64081        3.42367
H         -0.00193        2.06158        3.67326
H          0.89887        2.28084        2.14881
H          1.28530        3.29904        3.58165
H          3.03387        1.91205        1.12634
H          3.72557        0.31170        1.40755
H          5.31195        2.95684        1.29853
H          5.13505        1.82395       -0.04082
H          7.33727        1.47643        1.04070
H          6.33167        0.03493        1.31161
H          6.58419        1.20885        2.62329
