14
METHYL_ISOPROPENYL_KETONE.gamout	Energy:    -270.1882664
C         16.94188       19.00951        0.17549
C         18.24660       19.71670       -0.06427
O         16.94136       17.81515        0.40824
C         15.63841       19.78940        0.12619
C         18.29909       21.03372       -0.32482
C         19.46865       18.84359        0.01117
H         15.62552       20.59474        0.87823
H         15.49054       20.25711       -0.86050
H         14.81261       19.09461        0.32552
H         19.25357       21.53952       -0.49796
H         17.40317       21.65568       -0.37644
H         19.41274       18.02708       -0.72682
H         20.38529       19.42358       -0.16764
H         19.53886       18.35736        0.99752
