19
METHYL-ISO-BUTYL_KETONE.gamout	Energy:    -310.6658373
C          2.44624        2.91641        2.38565
C          2.08344        1.46575        2.04544
C          3.91543        3.28107        2.19722
C          2.17118        1.20245        0.53877
C          0.69518        1.10745        2.58674
C          4.25565        4.76007        2.25421
O          4.77123        2.44073        2.02633
H          1.82233        3.62843        1.81302
H          2.21736        3.12944        3.44766
H          2.83143        0.82467        2.54315
H          1.93908        0.15059        0.30725
H          1.45158        1.82985       -0.01686
H          3.18045        1.41161        0.15520
H         -0.08892        1.73738        2.13084
H          0.44543        0.05767        2.36570
H          0.63683        1.24228        3.67924
H          5.34508        4.88863        2.29242
H          3.78418        5.24552        3.12414
H          3.86277        5.26406        1.35431
