29
METHYL_OCTANOATE.gamout	Energy:    -503.5788012
C          5.12400        1.08426       -0.63290
O          4.12132        1.90861       -1.22684
C          3.08362        1.30745       -1.84933
C          2.10953        2.32415       -2.40551
O          2.94843        0.11117       -1.93531
C          0.70140        2.15318       -1.81313
C         -0.32212        3.13776       -2.38860
C         -1.73262        2.97896       -1.80640
C         -2.75997        3.96278       -2.37978
C         -4.16837        3.80929       -1.79534
C         -5.18381        4.79693       -2.37390
H          4.88847        0.02209       -0.78379
H          5.16939        1.31300        0.44298
H          6.09414        1.32701       -1.09321
H          2.07042        2.16218       -3.49718
H          2.49927        3.33791       -2.23107
H          0.75425        2.27365       -0.71555
H          0.37155        1.11550       -1.99177
H         -0.36305        3.01602       -3.48765
H          0.02985        4.17250       -2.21574
H         -1.68719        3.10023       -0.70742
H         -2.08432        1.94402       -1.97764
H         -2.80750        3.84201       -3.47896
H         -2.40674        4.99789       -2.20929
H         -4.12141        3.93129       -0.69717
H         -4.52378        2.77582       -1.96488
H         -4.88057        5.84144       -2.18749
H         -6.18112        4.65609       -1.92824
H         -5.28693        4.67515       -3.46578
