21
METHYL_TERT-PENTYL_ETHER.gamout	Energy:    -311.8461008
C         10.84183       20.75397        0.75278
C         12.36280       20.94710        0.59705
O         12.71067       21.82905        1.67325
C         13.06552       19.59127        0.76597
C         12.71338       21.55549       -0.76956
C         10.00067       22.02650        0.65010
C         14.02666       22.30411        1.76388
H         10.50786       20.01335        0.00538
H         10.68078       20.29406        1.74227
H         14.15908       19.68083        0.67389
H         12.73064       18.88075       -0.00626
H         12.83722       19.16144        1.75358
H         12.30318       20.93382       -1.58099
H         12.30050       22.56987       -0.86913
H         13.80208       21.61466       -0.92204
H          8.94372       21.80934        0.87100
H         10.35358       22.77948        1.37039
H         10.03826       22.47237       -0.35703
H         14.29411       22.99553        0.94105
H         14.09726       22.86166        2.70950
H         14.78336       21.49613        1.78974
