18
METHYL_BENZOATE.gamout	Energy:    -459.5294665
C          0.94712        3.22470       -0.20608
O          0.57040        1.89942        0.16060
C          0.04291        1.14261       -0.82184
O         -0.11107        1.54610       -1.95231
C         -0.32071       -0.22712       -0.35681
C         -0.12197       -0.64888        0.96617
C         -0.87822       -1.10998       -1.29274
C         -0.47869       -1.94357        1.34512
C         -1.03355       -2.82081        0.40900
C         -1.23307       -2.40239       -0.91033
H          1.71389        3.20822       -0.99578
H          0.07817        3.78877       -0.57859
H          1.34515        3.69384        0.70249
H          0.31223        0.04126        1.68975
H         -1.02305       -0.75958       -2.31589
H         -0.32296       -2.27030        2.37594
H         -1.31182       -3.83432        0.70867
H         -1.66684       -3.08774       -1.64212
