14
METHYL_PROPIONATE.gamout	Energy:    -307.2997379
C          0.02213        0.07673       -0.00035
C         -1.23134       -0.77279       -0.00058
C         -2.51432        0.04930        0.00114
O          0.05736        1.28276       -0.00121
O          1.12849       -0.69396        0.00073
C          2.37677       -0.00315        0.00027
H         -1.17296       -1.44101       -0.87748
H         -1.17194       -1.44325        0.87452
H         -2.56803        0.69853        0.88816
H         -2.56898        0.70067       -0.88424
H         -3.39566       -0.60957        0.00084
H          2.47286        0.63411       -0.89245
H          2.47285        0.63524        0.89219
H          3.15585       -0.77622        0.00078
