19
METHYLPARABEN.gamout	Energy:    -534.6661322
O         -2.26572       -0.99688       -0.00585
O          3.98993       -0.19766       -0.02644
O         -2.23820        1.25157       -0.06405
C         -0.16109        0.06578       -0.03332
C          0.60862        1.23742       -0.06336
C          0.49092       -1.17891       -0.00118
C          1.99815        1.17348       -0.06160
C          1.87841       -1.25110        0.00073
C          2.64221       -0.07350       -0.02960
C         -1.63903        0.19906       -0.03689
C         -3.68832       -0.95371       -0.00688
H          0.09306        2.19897       -0.08810
H         -0.10272       -2.09327        0.02237
H          2.59280        2.09185       -0.08525
H          2.39711       -2.21091        0.02535
H         -4.02822       -1.99717        0.02068
H         -4.06653       -0.45530       -0.91315
H         -4.06582       -0.40765        0.87164
H          4.39679        0.67927       -0.04896
