11
METHYL_CHLOROACETATE.gamout	Energy:    -727.4350572
Cl        -2.09337        0.06935        0.76857
O          1.44123        0.51233       -0.11562
O          0.40648       -1.44021       -0.54900
C         -0.88630        0.60571       -0.45103
C          0.36735       -0.25059       -0.37817
C          2.69373       -0.17358       -0.04184
H         -0.65321        1.66078       -0.26914
H         -1.34241        0.48287       -1.44312
H          2.67044       -0.93683        0.75069
H          3.44737        0.59067        0.18343
H          2.92337       -0.67007       -0.99711
