12
METHACRYLIC_ACID.gamout	Energy:    -306.0903597
C          1.98887        1.76046       -0.05039
C          1.23542        0.46089       -0.00268
C         -0.10026        0.36255        0.07959
C          2.08853       -0.76448       -0.05392
O          1.39718       -1.92374       -0.00702
O          3.29624       -0.73919       -0.13084
H          1.30041        2.61602       -0.00896
H          2.69903        1.83361        0.78941
H          2.59111        1.83134       -0.97067
H         -0.59614       -0.60864        0.11094
H         -0.72825        1.25691        0.11710
H          2.05965       -2.63393       -0.04772
