17
METHYL_ISOBUTYRATE.gamout	Energy:    -346.5557081
C          0.25902        0.30535       -0.04191
C         -1.12662       -0.22488       -0.38127
C         -1.43435       -1.50366        0.41518
C         -2.18254        0.86059       -0.18147
O          0.50927        1.40765        0.38152
O          1.21177       -0.62131       -0.27373
C          2.55243       -0.23383        0.02031
H         -1.08056       -0.50240       -1.45088
H         -2.41664       -1.90703        0.12417
H         -0.67498       -2.27734        0.23567
H         -1.46526       -1.29500        1.49789
H         -1.95391        1.75524       -0.77819
H         -3.17591        0.48815       -0.47531
H         -2.22673        1.17391        0.87348
H          2.85008        0.63981       -0.58032
H          2.66076        0.02773        1.08437
H          3.18373       -1.09727       -0.22535
