30
METHYL_TRIMELLITATE.gamout	Energy:    -914.7128298
O          2.14161       -1.78699       -1.04793
O          2.56212        2.14731       -0.65334
O         -4.19285        0.85622       -0.04154
O          1.20826       -2.75625        0.75941
O          3.07374        0.32544        0.55900
O         -3.82466       -1.35527        0.13219
C          0.35181       -0.65893       -0.02738
C          0.80023        0.67505       -0.12254
C         -1.94932        0.12480       -0.02399
C         -1.01734       -0.91757        0.04367
C         -0.13702        1.71407       -0.19371
C         -1.50310        1.44614       -0.15072
C          1.27987       -1.84081       -0.02153
C          2.25913        0.99425       -0.03160
C         -3.39992       -0.22799        0.03253
C          3.13534       -2.80845       -1.09157
C          3.92962        2.54852       -0.58534
C         -5.59630        0.60715        0.00987
H         -1.37840       -1.94185        0.14318
H          0.22034        2.74142       -0.26713
H         -2.22894        2.25722       -0.20434
H          2.67699       -3.80722       -1.04115
H          3.83725       -2.69580       -0.24982
H          3.66633       -2.67700       -2.04262
H          4.58256        1.76205       -0.99263
H          4.23115        2.74357        0.45563
H          4.01137        3.46428       -1.18392
H         -5.91092       -0.03108       -0.83018
H         -6.08558        1.58719       -0.05256
H         -5.86785        0.10200        0.94916
