69
METHYL_ERUCATE.gamout	Energy:   -1051.9406796
O          8.08680       -8.78820       -1.79943
O          9.19466       -8.48433        0.13149
C          2.02894       -3.79939       -0.81664
C          1.43265       -2.38521       -0.84893
C          3.56377       -3.82777       -0.82069
C         -0.10162       -2.34264       -0.83710
C          4.16892       -5.23848       -0.78627
C         -0.68125       -0.92077       -0.86369
C          5.70493       -5.26180       -0.78756
C         -2.21383       -0.84931       -0.83991
C         -4.83501        6.33750        1.54034
C         -4.42663        5.49344        0.32399
C         -2.75995        0.58628       -0.85925
C          6.30782       -6.67255       -0.75656
C         -4.92592        4.04291        0.36476
C         -4.32773        7.78610        1.49631
C         -4.50065        3.20768       -0.85844
C         -4.72868        8.63235        2.71210
C         -4.27111        0.67255       -0.82292
C          7.84703       -6.67617       -0.75937
C         -5.00953        1.79210       -0.82445
C         -4.21705       10.07693        2.66525
C         -4.62024       10.91130        3.88289
C          8.45972       -8.05959       -0.72607
C          8.61482      -10.10988       -1.87312
H          1.65890       -4.33085        0.08072
H          1.65148       -4.37579       -1.68251
H          1.81521       -1.81106        0.01632
H          1.80393       -1.85450       -1.74633
H          3.93781       -3.25004        0.04580
H          3.93412       -3.29489       -1.71712
H         -0.47196       -2.87074        0.06213
H         -0.49037       -2.91395       -1.70134
H          3.79927       -5.77228        0.10976
H          3.79763       -5.81670       -1.65342
H         -0.28425       -0.35330       -0.00037
H         -0.30906       -0.39340       -1.76277
H          6.07756       -4.68472        0.07966
H          6.07579       -4.72934       -1.68398
H         -2.59085       -1.36868        0.06125
H         -2.62480       -1.40799       -1.70177
H         -4.46268        5.85146        2.46220
H         -5.93797        6.33958        1.62846
H         -3.32356        5.49237        0.23731
H         -4.79759        5.97986       -0.59831
H         -2.33206        1.14028       -0.00195
H         -2.37416        1.10476       -1.75778
H          5.94933       -7.20812        0.14148
H          5.94923       -7.25126       -1.62455
H         -4.55556        3.54960        1.28207
H         -6.02920        4.03475        0.44427
H         -3.22477        7.78075        1.40637
H         -4.69953        8.27403        0.57521
H         -4.88392        3.70463       -1.77150
H         -3.40153        3.21969       -0.94645
H         -4.35571        8.14626        3.63390
H         -5.83153        8.64114        2.80450
H         -4.80689       -0.28414       -0.79110
H          8.24646       -6.13182        0.10877
H          8.21336       -6.17209       -1.67143
H         -6.10096        1.68181       -0.79109
H         -3.11499       10.06899        2.57367
H         -4.58940       10.56520        1.74542
H         -4.23397       11.94016        3.81064
H         -4.22955       10.47432        4.81786
H         -5.71740       10.97452        3.98291
H          9.71533      -10.09095       -1.90632
H          8.30847      -10.70744       -1.00042
H          8.21508      -10.55130       -2.79492
