59
METHYL_STEARATE.gamout	Energy:    -896.1436432
C         20.59387        6.97461        0.32109
O         19.30807        7.27321        0.85991
O         18.35668        6.14295       -0.83519
H         20.75568        5.88674        0.26560
H         20.70438        7.39075       -0.69257
H         21.32599        7.43144        0.99933
C         18.24903        6.79069        0.17691
C         16.95026        7.17706        0.85221
H          9.26427        8.10076        0.85863
H         -3.74708        7.27751        1.00072
H         -4.46042        7.70473       -0.57211
C         15.70418        6.65617        0.13711
H         16.99999        6.81742        1.89558
H         16.93814        8.27900        0.93255
C         14.39687        7.07924        0.81677
H         15.75908        5.55566        0.07451
H         15.71895        7.01041       -0.90813
C         13.13165        6.58331        0.10302
H         14.39188        6.71322        1.86140
H         14.36344        8.18313        0.88883
C         11.82359        7.01698        0.77907
H         13.16005        5.47941        0.03552
H         13.13882        6.94703       -0.94197
C         10.55322        6.56249        0.04643
H         11.80374        6.63150        1.81633
H         11.81251        8.11977        0.87154
C          9.24810        7.00221        0.72519
H         10.56187        5.46023       -0.05101
H         10.57311        6.95361       -0.98861
C          7.97545        6.61136       -0.03996
H          9.20669        6.57926        1.74699
C          6.67244        7.05372        0.64180
H         -3.54826        8.92043        0.35260
H          8.01865        7.04827       -1.05580
H          7.95777        5.51478       -0.18787
C          5.40139        6.73831       -0.16080
H          6.71665        8.14342        0.82963
H          6.60256        6.58209        1.64039
C          4.10030        7.18122        0.52463
H          5.35577        5.65197       -0.36642
H          5.47340        7.22642       -1.15136
C          2.83215        6.93242       -0.30560
H          4.00541        6.66499        1.49874
H          4.16877        8.25937        0.76444
C          1.53334        7.37419        0.38465
H          2.92667        7.45993       -1.27375
H          2.76425        5.85702       -0.55760
C          0.26738        7.16909       -0.46103
H          1.61650        8.44280        0.66015
H          1.42376        6.82810        1.34084
C         -1.03150        7.60667        0.22964
H          0.37562        7.72123       -1.41393
H          0.18689        6.10192       -0.74291
C         -2.29048        7.41966       -0.62616
H         -1.15070        7.04531        1.17601
H         -0.94713        8.67056        0.52322
C         -3.58050        7.85309        0.07411
H         -2.17530        7.98486       -1.56967
H         -2.37334        6.35757       -0.92333
