8
METHYLTRICHLOROSILANE.gamout	Energy:   -1709.3936729
Cl        -0.77840        1.77470        0.66332
Cl        -1.14791       -1.56179        0.66215
Cl         1.92631       -0.21459        0.66332
Si         0.00017       -0.00001       -0.06095
C         -0.00057        0.00238       -1.91991
H         -1.02783        0.11698       -2.30079
H          0.61144        0.83600       -2.29926
H          0.41505       -0.94319       -2.30278
