5
METHANE.gamout	Energy:     -40.4518067
C          1.05820        0.93531        0.81030
H          1.41876        1.57383       -0.00970
H          1.20825        1.45136        1.77015
H         -0.01268        0.72689        0.66934
H          1.61872       -0.01135        0.81140
