21
METHYLCYCLOHEXANE.gamout	Energy:    -274.7937469
C          5.24660        2.15724        1.05281
C          3.90448        2.23741        1.78348
C          3.16122        0.89132        1.76874
C          3.00122        3.34032        1.20920
C          1.81104        0.96278        2.48998
C          1.65026        3.42150        1.92749
C          0.92539        2.07201        1.91491
H          5.78818        3.11695        1.09371
H          5.89997        1.38593        1.49315
H          5.10328        1.90240       -0.01187
H          4.10568        2.49322        2.84307
H          2.99721        0.58931        0.71609
H          3.79359        0.10849        2.22047
H          3.51799        4.31368        1.25997
H          2.83083        3.13519        0.13451
H          1.29621       -0.01041        2.43053
H          1.98453        1.15742        3.56512
H          1.81434        3.73442        2.97582
H          1.02052        4.19989        1.46621
H          0.65210        1.81550        0.87377
H         -0.02101        2.14010        2.47613
