7
METHYLACETYLENE.gamout	Energy:    -116.4904853
C          0.38701        0.84385        0.59052
C          1.84638        0.84453        0.60934
C          3.05766        0.84510        0.62498
H         -0.00566        1.77401        0.14698
H         -0.00323       -0.00087       -0.00123
H         -0.02452        0.75833        1.60996
H          4.13112        0.84565        0.63856
