12
METHYL_ACRYLATE.gamout	Energy:    -306.0717884
C          3.92628        0.85349        1.21422
C          2.44224        0.89423        1.25663
O          1.92383        1.94232        0.58527
O          1.76348        0.07498        1.83253
C          4.69171        1.75188        0.58536
C          0.50189        2.04147        0.58716
H          4.35484        0.00524        1.75485
H          5.78180        1.66807        0.59027
H          4.24678        2.59402        0.04972
H          0.25627        2.93464       -0.00116
H          0.04530        1.14832        0.13308
H          0.11758        2.14342        1.61395
