22
METHYL-4-HYDROXYPHENYLACETATE.gamout	Energy:    -573.9150813
O         -3.11308       -0.42261       -0.51984
O          3.35098        0.15294        1.06940
O         -2.97441        1.70465       -1.23831
C         -0.11752        0.09028       -1.26140
C         -1.39809        0.06157       -2.07388
C          0.67058        1.24641       -1.20849
C          0.28698       -1.02240       -0.50913
C          1.83246        1.29161       -0.43649
C          1.44439       -0.99090        0.26447
C          2.22764        0.17045        0.30447
C         -2.57570        0.56679       -1.25958
C         -4.17129       -0.04634        0.35922
H         -1.31079        0.71215       -2.95500
H         -1.61203       -0.96306       -2.41010
H          0.36965        2.13119       -1.77516
H         -0.32152       -1.93024       -0.52429
H          2.43833        2.20300       -0.41101
H          1.76295       -1.85847        0.84487
H         -4.46102       -0.95728        0.89806
H         -5.02994        0.35041       -0.20499
H         -3.83495        0.72537        1.06870
H          3.79269        1.01030        1.01046
