21
METHYL_GALLATE.gamout	Energy:    -684.9307075
O          1.38039       -3.05722        0.02933
O          2.94587        1.35565       -0.01576
O         -2.83020       -0.29719       -0.55285
O          3.37037       -1.29909        0.15690
O         -2.13376        1.84038       -0.58035
C         -0.51449        0.09706       -0.32464
C          0.55812        0.99694       -0.25332
C         -0.27947       -1.28298       -0.23343
C          1.02588       -1.73765       -0.07204
C          1.86613        0.53880       -0.09177
C          2.10987       -0.84482        0.00063
C         -1.87720        0.65954       -0.49670
C         -4.16665        0.16575       -0.71646
H          0.34669        2.06632       -0.32686
H         -1.11231       -1.98541       -0.28855
H          0.59777       -3.61963       -0.02704
H          2.65331        2.27327       -0.09120
H          3.32408       -2.26745        0.19837
H         -4.80242       -0.72862       -0.74402
H         -4.46374        0.81706        0.12048
H         -4.27382        0.73670       -1.65204
