33
METRONIDAZOLE_BENZOATE.gamout	Energy:    -967.0393389
O         -1.11331        0.26939        0.00220
O          4.40045        2.41143        0.73661
O          2.26212        2.16389        1.04126
O         -1.77548        1.22706       -1.91964
N          2.46713       -0.54011        0.22746
N          4.34519       -1.53064       -0.47928
N          3.37530        1.74664        0.72036
C          1.06467       -0.38936        0.60910
C          3.04650       -1.68531       -0.25284
C          0.22324        0.24912       -0.49108
C          3.49812        0.39010        0.29326
C          4.63975       -0.25320       -0.14672
C          2.31577       -2.96469       -0.47770
C         -2.04421        0.80802       -0.81841
C         -3.40279        0.81938       -0.21038
C         -3.65183        0.33787        1.08281
C         -4.45608        1.34007       -0.97612
C         -4.94613        0.37367        1.60073
C         -5.74705        1.37574       -0.45430
C         -5.99378        0.89180        0.83407
H          0.67768       -1.38937        0.84332
H          1.00645        0.22443        1.51482
H          0.56684        1.27369       -0.69710
H          0.27089       -0.32256       -1.43255
H          5.63780        0.17345       -0.22555
H          1.43276       -2.83896       -1.12415
H          3.00906       -3.66068       -0.96645
H          1.98168       -3.42360        0.46871
H         -2.82858       -0.06137        1.67497
H         -4.23438        1.71394       -1.97680
H         -5.14113       -0.00258        2.60742
H         -6.56625        1.78195       -1.05149
H         -7.00653        0.91995        1.24322
