28
MOEMPYR+1.gamout	Energy:    -444.7912998
C         -1.90228       -1.18975       -2.40096
O         -0.53249       -1.31666       -2.06747
H         -2.34440       -0.27691       -1.95738
H         -2.48707       -2.06764       -2.06548
H         -1.96494       -1.11720       -3.49463
C         -0.27472       -1.42085       -0.70393
C          1.24215       -1.61458       -0.63034
H         -0.81462       -2.28001       -0.25292
H         -0.59493       -0.51047       -0.15223
N          1.85855       -1.58483        0.74675
H          1.72179       -0.81806       -1.21545
H          1.50715       -2.57680       -1.08870
C          1.32087       -2.69893        1.59054
H          0.23364       -2.60265        1.67594
H          1.77454       -2.64238        2.58729
H          1.57454       -3.65754        1.12039
C          1.63568       -0.22947        1.43467
C          2.98231        0.14997        2.03526
H          0.81411       -0.32450        2.15411
H          1.33994        0.48337        0.65427
C          3.96353       -0.35963        0.97974
H          3.14316       -0.35090        3.00401
H          3.04657        1.23289        2.20882
C          3.39036       -1.72447        0.62179
H          4.99709       -0.44438        1.34297
H          3.97274        0.30619        0.10164
H          3.70234       -2.49360        1.34013
H          3.63028       -2.07431       -0.38872
