32
MORIN.gamout	Energy:   -1102.8042559
O         -0.22906       -0.80354        0.11358
O          0.69575        2.63675       -0.68505
O         -4.28844        1.68577       -0.24630
O         -1.99648        2.77737       -0.65979
O          2.69784        1.33710       -1.83108
O         -4.33231       -2.94336        0.90652
O          5.96377       -1.25352        0.57339
C         -2.22380        0.49910       -0.07682
C          0.55658        0.28196       -0.17109
C         -1.57710       -0.72120        0.18241
C          1.98343       -0.07363       -0.04111
C          0.00115        1.51162       -0.44176
C         -1.46089        1.68087       -0.41926
C         -3.64820        0.54700       -0.00270
C         -2.27626       -1.87913        0.50990
C          3.02213        0.45451       -0.83374
C         -3.67287       -1.80846        0.58238
C         -4.35771       -0.60841        0.32899
C          2.35821       -1.03349        0.92374
C          4.35535        0.08428       -0.63656
C          3.67402       -1.42465        1.12190
C          4.69165       -0.85672        0.34192
H         -1.75448       -2.81415        0.70321
H         -5.44683       -0.55205        0.38418
H          1.57251       -1.47761        1.53631
H          5.13377        0.52557       -1.26781
H          3.93783       -2.16171        1.88031
H          1.52814        2.41104       -1.13955
H         -3.57779        2.36194       -0.45957
H          3.48367        1.58638       -2.33589
H         -5.28256       -2.76776        0.92341
H          6.57238       -0.79320       -0.01947
