20
N,N-DIMETHYLANILINE.gamout	Energy:    -365.7129110
C          6.60475        4.18869       -1.28539
N          7.15435        2.89036       -0.96293
C          8.58910        2.71667       -0.90291
C          6.31146        1.83220       -0.66591
C          6.82192        0.55763       -0.31523
C          4.90234        1.97703       -0.70458
C          5.96562       -0.50251       -0.01984
C          4.57812       -0.34621       -0.06008
C          4.06212        0.90504       -0.40539
H          7.42505        4.88935       -1.48800
H          5.96078        4.16078       -2.18497
H          5.99939        4.61028       -0.45963
H          9.07916        3.65325       -1.19839
H          8.94390        2.45547        0.11309
H          8.94277        1.92463       -1.58912
H          7.89725        0.38903       -0.27037
H          4.45456        2.93377       -0.97017
H          6.39800       -1.47112        0.24615
H          3.91390       -1.18104        0.17220
H          2.97978        1.05608       -0.44700
