21
N-BUTYL_ACRYLATE.gamout	Energy:    -423.8465843
O          4.37625        1.10228        1.75768
C          3.17533        1.49032        1.28925
C          2.07954        0.75356        1.97452
O          3.03045        2.32609        0.42708
C          5.52657        1.73480        1.18275
C          0.80096        0.98379        1.66078
C          6.76314        1.14891        1.83997
C          8.06171        1.75223        1.29854
C          9.31659        1.17064        1.95039
H          2.37800        0.02725        2.73471
H          5.52160        1.56847        0.09192
H          5.45396        2.82485        1.33829
H          0.55236        1.72141        0.89205
H         -0.01503        0.45140        2.15446
H          6.76105        0.05516        1.68641
H          6.69655        1.30977        2.93054
H          8.04497        2.84762        1.44562
H          8.10861        1.59511        0.20552
H          9.32363        1.34458        3.03968
H          9.38536        0.08132        1.79071
H         10.22970        1.62541        1.53576
