15
N-BUTANOL.gamout	Energy:    -233.3405624
C          1.27441        4.19869        0.92376
C          0.26921        4.60649       -0.15484
C         -0.22805        6.03720       -0.01083
C          1.77388        2.76054        0.77639
O         -1.14551        6.30157       -1.05318
H          2.13608        4.89120        0.90043
H          0.81232        4.32665        1.92031
H         -0.60654        3.93338       -0.13540
H          0.71852        4.49828       -1.15840
H         -0.69819        6.16587        0.98809
H          0.63754        6.73344       -0.04368
H          0.94173        2.03859        0.83291
H          2.49398        2.50201        1.56884
H          2.27627        2.60804       -0.19397
H         -1.46048        7.20862       -0.95947
