29
N-BUTYL_VALERATE.gamout	Energy:    -503.5859370
C         -0.50674        0.41610       -0.00183
C         -1.68158       -0.54095       -0.00092
C         -3.04485        0.14565        0.00040
C         -4.21426       -0.84431        0.00133
C         -5.58697       -0.16853        0.00264
O         -0.57694        1.62114       -0.00407
O          0.65711       -0.26015        0.00002
C          1.86398        0.51332       -0.00092
C          3.03311       -0.45577        0.00103
C          4.39275        0.24735        0.00030
C          5.57402       -0.72503        0.00209
H         -1.56269       -1.20408       -0.87649
H         -1.56116       -1.20441        0.87416
H         -3.11484        0.80989        0.87911
H         -3.11639        0.81022       -0.87792
H         -4.13109       -1.50717       -0.88002
H         -4.12954       -1.50745        0.88232
H         -6.39895       -0.91289        0.00326
H         -5.71991        0.47076        0.89179
H         -5.72153        0.47099       -0.88611
H          1.87542        1.16926       -0.88826
H          1.87474        1.17233        0.88414
H          2.94556       -1.11184        0.88532
H          2.94592       -1.11455       -0.88128
H          4.46271        0.90895       -0.88245
H          4.46228        0.91161        0.88108
H          5.55717       -1.37876       -0.88636
H          6.53481       -0.18704        0.00141
H          5.55688       -1.37600        0.89257
