30
N-CAPRINITRILE.gamout	Energy:    -446.6239237
C        103.97001       20.01957        0.00003
C        102.67177       19.20140       -0.00027
C        102.89764       17.68379        0.00000
C        103.75141       21.53808       -0.00022
C        101.60228       16.86440       -0.00017
C        105.04916       22.35639        0.00010
C        101.86880       15.34614        0.00015
C        104.82961       23.87336       -0.00003
C        100.64602       14.53817        0.00010
C        106.12814       24.68242        0.00028
N         99.67039       13.91276        0.00011
H        104.57584       19.73803        0.88191
H        104.57641       19.73783       -0.88141
H        102.06511       19.47962       -0.88226
H        102.06457       19.47986        0.88128
H        103.50350       17.40416        0.88226
H        103.50391       17.40387       -0.88189
H        103.14522       21.81903       -0.88204
H        103.14468       21.81929        0.88117
H        100.99213       17.12202       -0.88294
H        100.99170       17.12228        0.88224
H        105.65617       22.07662        0.88205
H        105.65676       22.07656       -0.88143
H        102.46663       15.06087        0.88350
H        102.46698       15.06051       -0.88285
H        104.22325       24.15322       -0.88129
H        104.22277       24.15334        0.88087
H        105.92668       25.76539        0.00020
H        106.74276       24.45944        0.88926
H        106.74328       24.45942       -0.88833
