32
N-CAPRIC_ACID.gamout	Energy:    -542.8459508
C          4.11157        2.16529        1.30854
C          5.22200        1.13729        1.04237
C          3.25351        1.88240        2.54748
C          6.29824        0.99309        2.12883
C          2.06588        2.85383        2.67946
C          7.13861        2.25014        2.39324
C          1.22393        2.60995        3.91154
C          8.30017        2.01571        3.36765
O          0.62845        1.39586        3.88149
O          1.08094        3.37246        4.83482
C          9.14900        3.26088        3.65299
C         10.31475        2.99859        4.60800
H          3.45282        2.19350        0.42235
H          4.54524        3.17857        1.38869
H          4.75721        0.14827        0.88046
H          5.71199        1.40006        0.08782
H          3.87069        1.94649        3.46024
H          2.86632        0.84989        2.50485
H          6.97568        0.17446        1.82730
H          5.83662        0.65760        3.07571
H          2.41120        3.89671        2.72516
H          1.41119        2.74652        1.79714
H          6.49656        3.05847        2.78816
H          7.53957        2.62666        1.43276
H          8.95363        1.21764        2.96717
H          7.90071        1.62278        4.32207
H          0.12861        1.31435        4.71206
H          9.53928        3.66049        2.69850
H          8.50336        4.05596        4.06927
H         11.00268        2.23686        4.20323
H          9.95931        2.63210        5.58620
H         10.90095        3.91304        4.78948
