48
N-DECYLCYCLOHEXANE.gamout	Energy:    -628.0980119
C          3.29048        5.74623        2.80062
C          1.82446        5.75324        2.34019
C          1.58798        5.65714        0.82011
C          3.45541        5.69939        4.32672
C          0.08825        5.53379        0.49896
C          2.20049        6.83046        0.03773
C          4.91231        5.73307        4.81076
C         -0.19942        5.45825       -1.00444
C          1.91179        6.76125       -1.46593
C          5.06336        5.67749        6.33784
C          0.41488        6.64030       -1.75646
C          6.51336        5.73821        6.83962
C          6.64673        5.66459        8.36739
C          8.08788        5.74367        8.88826
C          8.20465        5.63550       10.41298
C          9.64085        5.72753       10.93297
H          3.81139        6.63944        2.41152
H          3.80854        4.87736        2.35162
H          1.32858        6.66625        2.72348
H          1.30179        4.90809        2.82499
H          2.07881        4.72774        0.46537
H          2.96468        4.78769        4.71762
H          2.90517        6.54699        4.77801
H         -0.32723        4.64604        1.00375
H         -0.44112        6.40666        0.92746
H          1.79632        7.77825        0.44341
H          3.28932        6.86570        0.19919
H          5.40189        6.64917        4.42890
H          5.46691        4.88900        4.35840
H          0.21356        4.51497       -1.40855
H         -1.28724        5.41866       -1.17750
H          2.32618        7.65139       -1.96632
H          2.43874        5.89054       -1.89990
H          4.58842        4.75182        6.71548
H          4.48938        6.50918        6.78911
H          0.24321        6.53536       -2.84031
H         -0.09459        7.57374       -1.45053
H          6.98618        6.67064        6.47620
H          7.09296        4.91374        6.38255
H          6.05242        6.47977        8.82245
H          6.18333        4.72568        8.72644
H          8.69205        4.94316        8.42011
H          8.54619        6.69483        8.55553
H          7.59315        6.42898       10.88163
H          7.75520        4.68088       10.74493
H         10.10437        6.69396       10.67032
H         10.27534        4.93122       10.50749
H          9.67634        5.62961       12.02951
