98
N-DOTRIACONTANE.gamout	Energy:   -1257.3826755
C         15.93875        3.27443        7.85919
C         14.50773        2.77199        7.62315
C         13.55756        3.09943        8.78179
C         16.92447        2.95855        6.72600
C         12.13438        2.52571        8.69675
C         18.34948        3.46399        6.99134
C         11.24915        3.03925        7.54309
C         19.35774        3.14489        5.87861
C         11.26309        2.17350        6.27545
C         20.77806        3.65249        6.16588
C         10.35532        2.67913        5.13553
C         21.80205        3.33064        5.06822
C          8.94728        2.06553        5.07241
C         23.21925        3.83863        5.37071
C          8.02590        2.35319        6.26502
C         24.25326        3.51474        4.28286
C          6.60363        1.79927        6.09951
C         25.66875        4.02202        4.59466
C          5.68207        2.07417        7.29752
C         26.70805        3.69667        3.51221
C          4.26104        1.51151        7.14456
C         28.12288        4.20264        3.82903
C          3.34387        1.78419        8.34573
C         29.16434        3.87638        2.74883
C          1.92948        1.20897        8.19023
C         30.57921        4.38078        3.06729
C          0.96282        1.52299        9.34256
C         31.62140        4.05545        1.98883
C          1.32756        0.88862       10.68978
C         33.03298        4.55937        2.31108
C          0.29828        1.16109       11.78790
C         34.06425        4.23155        1.22953
H         15.91621        4.36816        8.02551
H         16.32015        2.83591        8.80061
H         14.12373        3.20719        6.68319
H         14.52545        1.67702        7.46527
H         14.01227        2.72950        9.71835
H         13.49458        4.19842        8.89620
H         16.95101        1.86458        6.56139
H         16.55125        3.39437        5.77996
H         12.18751        1.42136        8.65362
H         11.63654        2.75596        9.65283
H         18.71264        3.02898        7.94167
H         18.32242        4.55828        7.15335
H         10.21114        3.11838        7.90379
H         11.54574        4.07208        7.28021
H         19.00093        3.57652        4.92435
H         19.38752        2.05028        5.71904
H         12.29845        2.09765        5.90633
H         10.97354        1.13960        6.54253
H         21.12736        3.22052        7.12278
H         20.74785        4.74723        6.32453
H         10.27288        3.78091        5.19163
H         10.84532        2.47007        4.17077
H         21.45772        3.75982        4.10825
H         21.83360        2.23560        4.91193
H          8.45756        2.42805        4.15114
H          9.04178        0.96985        4.94745
H         23.18743        4.93357        5.52761
H         23.55921        3.40812        6.33166
H          8.46496        1.92704        7.18490
H          7.97654        3.44614        6.43024
H         23.91708        3.94273        3.31946
H         24.28529        2.41944        4.12850
H          6.65659        0.70721        5.92849
H          6.15064        2.22452        5.18403
H         25.63681        5.11706        4.75085
H         26.00301        3.59191        5.55781
H          6.14216        1.65068        8.21047
H          5.62588        3.16598        7.46940
H         26.73959        2.60125        3.35853
H         26.37659        4.12459        2.54713
H          3.80025        1.93087        6.23006
H          4.32062        0.41933        6.97618
H         28.45389        3.77241        4.79325
H         28.09131        5.29772        3.98519
H          3.27564        2.87649        8.51087
H          3.81521        1.37107        9.25589
H         29.19498        2.78098        2.59479
H         28.83479        4.30508        1.78343
H          1.99464        0.11127        8.06405
H          1.49149        1.59237        7.25111
H         30.90953        3.95009        4.03158
H         30.54850        5.47588        3.22369
H          0.88566        2.62003        9.46809
H         -0.04748        1.18269        9.05285
H         31.29510        4.48619        1.02302
H         31.65442        2.96030        1.83227
H          2.31425        1.25784       11.02003
H          1.44222       -0.20322       10.55590
H         33.00175        5.65353        2.46825
H         33.36217        4.12772        3.27451
H          0.18194        2.24266       11.97349
H          0.59315        0.69317       12.74064
H         -0.69608        0.76579       11.51799
H         34.15259        3.14304        1.07138
H         35.06289        4.60904        1.49974
H         33.78979        4.68244        0.26044
