54
N-DODECYLCYCLOHEXANE.gamout	Energy:    -706.5948711
C          1.48076        2.53225        1.65147
C          1.94651        3.43211        2.79882
C          0.51741        3.28240        0.70900
C          2.78533        4.63660        2.29081
C          2.33556        5.04752        0.86857
C          4.29428        4.33807        2.36958
C          0.84189        4.78980        0.64441
C          5.22941        5.49233        1.98069
C          6.71924        5.15260        2.13088
C          7.66476        6.30256        1.76021
C          9.16242        5.95629        1.79441
C          9.73822        5.61960        3.17592
C         11.25042        5.36273        3.15737
C         11.89186        5.10243        4.52971
C         11.43345        3.84279        5.28204
C         11.75029        2.51818        4.57951
C         11.33292        1.25955        5.35477
C         12.10269        1.02018        6.65467
H          2.36474        2.18394        1.08896
H          0.99982        1.62255        2.04481
H          1.06050        3.79593        3.34752
H          2.53396        2.85262        3.52867
H          0.57554        2.83993       -0.29933
H         -0.52479        3.14586        1.04371
H          2.58169        5.48821        2.96592
H          2.57063        6.10746        0.68482
H          2.91229        4.47509        0.11770
H          4.51757        3.46056        1.73183
H          4.53207        4.02421        3.40243
H          0.26795        5.33474        1.41522
H          0.52021        5.20800       -0.32228
H          5.03449        5.79431        0.93592
H          4.99055        6.37875        2.59922
H          6.95564        4.27608        1.49765
H          6.91187        4.83043        3.17041
H          7.47009        7.16644        2.42430
H          7.41877        6.65074        0.74098
H          9.72415        6.80995        1.37386
H          9.35002        5.10973        1.10613
H          9.22020        4.73616        3.58824
H          9.51953        6.45051        3.87415
H         11.75533        6.23792        2.71058
H         11.47059        4.51979        2.47652
H         11.71195        5.97926        5.17811
H         12.98749        5.05460        4.39422
H         10.34714        3.89616        5.48183
H         11.91432        3.85589        6.27511
H         12.83567        2.46890        4.36592
H         11.25199        2.49622        3.59470
H         11.46537        0.38451        4.69471
H         10.24908        1.30720        5.57099
H         13.18947        0.95970        6.47121
H         11.93667        1.82379        7.39065
H         11.79661        0.07503        7.13115
