68
N-DOCOSANE.gamout	Energy:    -864.8294084
C         12.21214        2.91951        6.89674
C         11.18841        2.83403        8.03756
C          9.83594        2.22620        7.64369
C         13.53905        3.56572        7.31684
C          8.84622        2.14076        8.81378
C         14.59576        3.65745        6.20746
C          7.48274        1.50892        8.48951
C         15.88854        4.34440        6.66680
C          6.58796        2.33519        7.55529
C         16.97184        4.53236        5.59291
C          5.20169        1.72117        7.31448
C         17.62872        3.24314        5.08120
C          4.29252        2.56083        6.40491
C         18.76651        3.48755        4.07883
C          2.90276        1.95349        6.16608
C         19.45214        2.21052        3.57050
C          1.99257        2.80430        5.27036
C         20.59383        2.46273        2.57577
C          0.60352        2.20051        5.03215
C         21.28437        1.18782        2.07745
C         -0.29536        3.06156        4.14247
C         22.42369        1.45147        1.09077
H         11.77776        3.49570        6.05793
H         12.40038        1.90499        6.49712
H         11.01897        3.84965        8.44321
H         11.62489        2.25237        8.87164
H          9.98935        1.21344        7.22502
H          9.40056        2.82755        6.82521
H         13.96145        3.00674        8.17329
H         13.33370        4.58321        7.70078
H          9.31716        1.56473        9.63040
H          8.68226        3.15528        9.22483
H         14.81535        2.64201        5.83030
H         14.17716        4.21369        5.34720
H          7.63482        0.50010        8.06086
H          6.94340        1.35048        9.44066
H         16.31627        3.78435        7.52019
H         15.62936        5.34046        7.06799
H          6.46492        3.34744        7.98537
H          7.09106        2.48296        6.58246
H         16.54994        5.09287        4.73715
H         17.75812        5.18407        6.01487
H          5.32001        0.70943        6.88239
H          4.69665        1.57281        8.28794
H         16.86785        2.59139        4.61473
H         18.02369        2.67519        5.94498
H          4.17439        3.56915        6.84524
H          4.79333        2.71848        5.43087
H         18.37729        4.05877        3.21476
H         19.52519        4.14155        4.54932
H          3.01576        0.94669        5.72123
H          2.40352        1.79497        7.14083
H         18.69751        1.55223        3.09981
H         19.84596        1.64273        4.43481
H          2.48906        2.96870        4.29503
H          1.87731        3.80924        5.71929
H         20.20687        3.02804        1.70664
H         21.34732        3.12136        3.04816
H          0.71471        1.19684        4.58165
H          0.10605        2.03716        6.00613
H         20.53371        0.52756        1.60495
H         21.67395        0.62360        2.94495
H         -0.46273        4.05882        4.58403
H          0.15109        3.21478        3.14509
H         -1.28172        2.59409        3.99579
H         22.06583        1.97816        0.18958
H         23.21285        2.07483        1.54473
H         22.89278        0.51165        0.76051
