53
N-HEPTADECANE.gamout	Energy:    -668.5504902
C          6.54253        3.31080        3.49639
C          5.03746        3.01222        3.51585
C          4.21261        3.90888        2.58261
C          7.37681        2.42416        4.43067
C          2.70389        3.62981        2.60497
C          8.87829        2.74271        4.41683
C          1.88876        4.53451        1.66994
C          9.72100        1.86742        5.35461
C          0.37642        4.27279        1.69200
C         11.21849        2.20471        5.34759
C         -0.43010        5.18257        0.75411
C         12.06625        1.34065        6.28982
C         -1.94341        4.93296        0.77577
C         13.55831        1.69266        6.28788
C         -2.74059        5.84505       -0.16433
C         14.39559        0.83106        7.23543
C         -4.24930        5.59383       -0.13356
H          6.70104        4.37212        3.76747
H          6.92376        3.20854        2.46237
H          4.66026        3.11908        4.55090
H          4.86889        1.95202        3.24664
H          4.38627        4.96837        2.85151
H          4.59048        3.79983        1.54800
H          7.22326        1.36201        4.16010
H          6.99482        2.52510        5.46457
H          2.32924        3.74330        3.64030
H          2.52172        2.57126        2.33808
H          9.26468        2.64599        3.38423
H          9.02136        3.80599        4.68895
H          2.07530        5.59254        1.93598
H          2.26489        4.41834        0.63541
H          9.33324        1.96363        6.38679
H          9.58307        0.80315        5.08391
H          0.00226        4.39281        2.72680
H          0.18346        3.21553        1.42760
H         11.61099        2.11169        4.31697
H         11.34797        3.26978        5.61960
H         -0.05509        5.06035       -0.28017
H         -0.23467        6.23980        1.01695
H         11.67440        1.43361        7.32090
H         11.94315        0.27412        6.02027
H         -2.14536        3.87677        0.51318
H         -2.31983        5.05900        1.80924
H         13.67794        2.75838        6.55859
H         13.95484        1.60097        5.25950
H         -2.53875        6.90080        0.09644
H         -2.36580        5.71779       -1.19730
H         14.05101        0.93069        8.27905
H         14.33279       -0.23790        6.96887
H         15.45825        1.11941        7.20707
H         -4.78246        6.26857       -0.82174
H         -4.49155        4.55813       -0.42752
H         -4.66291        5.75361        0.87705
