23
N-HEPTANE.gamout	Energy:    -275.9881488
C          4.93945        1.11949        1.61534
C          3.68997        1.86874        1.13809
C          2.36789        1.20716        1.54366
C          6.25893        1.78630        1.21157
C          1.12089        1.95390        1.05731
C          7.50080        1.02937        1.68477
C         -0.19312        1.28902        1.47068
H          4.91917        0.08607        1.21958
H          4.90589        1.01737        2.71692
H          3.71477        2.90348        1.52976
H          3.72354        1.96653        0.03626
H          2.34467        0.17076        1.15589
H          2.32850        1.11385        2.64580
H          6.28135        2.81748        1.61050
H          6.28907        1.89195        0.11113
H          1.14694        2.99086        1.44078
H          1.15826        2.04243       -0.04442
H          7.52286        0.93837        2.78439
H          8.42678        1.54034        1.37629
H          7.53204        0.00697        1.27056
H         -0.28216        1.22152        2.56847
H         -0.26716        0.26273        1.07208
H         -1.06447        1.85242        1.10071
