65
N-HENEICOSANE.gamout	Energy:    -825.5759926
C          6.22249        4.50579        3.64071
C          5.15232        4.93225        2.62651
C          3.83337        5.38728        3.26569
C          7.55176        4.07202        3.00812
C          2.76099        5.81840        2.25556
C          8.61799        3.64664        4.02727
C          1.45056        6.29359        2.89862
C          9.95780        3.23149        3.40354
C          0.37765        6.73076        1.89136
C         11.01761        2.80478        4.42902
C         -0.92612        7.22118        2.53701
C         12.36630        2.40406        3.81472
C         -1.99868        7.66334        1.53151
C         13.41892        1.97498        4.84646
C         -3.29860        8.16231        2.17820
C         14.77365        1.58272        4.24192
C         -4.37056        8.60743        1.17472
C         15.81708        1.15200        5.27919
C         -5.66602        9.10810        1.82385
C         17.16707        0.76669        4.67003
C         -6.72682        9.55218        0.81445
H          6.41092        5.34467        4.33723
H          5.82759        3.68187        4.26477
H          5.55402        5.75185        2.00091
H          4.95412        4.09668        1.92870
H          4.03757        6.22874        3.95466
H          3.43305        4.57324        3.89924
H          7.36823        3.24197        2.29977
H          7.94973        4.90215        2.39404
H          2.54884        4.97899        1.56652
H          3.16773        6.62830        1.62060
H          8.22636        2.81247        4.63971
H          8.79147        4.48079        4.73327
H          1.66810        7.13602        3.58240
H          1.04358        5.48783        3.53860
H         10.35424        4.07099        2.80128
H          9.78854        2.40699        2.68524
H          0.15390        5.88928        1.20846
H          0.78906        7.53307        1.24978
H         11.17819        3.63315        5.14469
H         10.62639        1.96177        5.02961
H         -0.69901        8.06344        3.21791
H         -1.33834        6.42086        3.18055
H         12.20893        1.58404        3.08875
H         12.76253        3.25095        3.22267
H         -2.22958        6.82102        0.85198
H         -1.58408        8.46113        0.88632
H         13.02601        1.12582        5.43732
H         13.57045        2.79799        5.57018
H         -3.06682        9.00428        2.85793
H         -3.71415        7.36476        2.82310
H         14.62641        0.76415        3.51205
H         15.17313        2.43341        3.65729
H         -3.95664        9.40489        0.52841
H         -4.60686        7.76605        0.49561
H         15.96301        1.97086        6.00770
H         15.42103        0.30031        5.86293
H         -5.43185        9.94844        2.50353
H         -6.08143        8.31082        2.46792
H         17.06532       -0.07501        3.96386
H         17.61304        1.60941        4.11433
H         17.88591        0.46356        5.44728
H         -7.01634        8.72526        0.14357
H         -6.35760       10.37615        0.18020
H         -7.63947        9.90459        1.32020
