23
N-HEPTANOIC_ACID.gamout	Energy:    -425.0797101
C          4.74063        1.14332        1.31571
C          3.91076        1.27153        2.60336
C          2.39888        1.27168        2.35358
C          6.22452        1.09867        1.60716
C          1.56055        1.39573        3.63168
O          6.90223        2.09837        1.00455
O          6.76845        0.28131        2.30840
C          0.04716        1.39573        3.38679
C         -0.78077        1.52452        4.66669
H          4.52879        1.96263        0.61291
H          4.48782        0.19421        0.81176
H          4.18475        0.44091        3.27592
H          4.20018        2.19985        3.12843
H          2.14124        2.10015        1.66687
H          2.11903        0.34336        1.82095
H          1.81779        0.56809        4.31957
H          1.84267        2.32421        4.16318
H          7.83683        1.98826        1.25461
H         -0.23497        0.46812        2.85543
H         -0.20810        2.22295        2.69853
H         -0.54927        2.46194        5.20038
H         -1.86072        1.52352        4.44966
H         -0.58128        0.69176        5.36265
