36
N-HEPTYLCYCLOPENTANE.gamout	Energy:    -471.0626395
C          1.82975        0.93327        0.93723
C          0.69588        1.99601        1.00188
C          2.96827        1.48590        1.81533
C          1.27097        3.16948        1.82643
C          2.80170        3.01295        1.75351
C          3.56688        3.81556        2.81266
C          5.09796        3.74311        2.71452
C          8.79944        7.55363        5.75089
C          7.96014        6.82406        4.70075
C          8.12264        5.30023        4.74383
C          7.35694        4.52862        3.65872
C          5.82760        4.59643        3.76149
H          1.49685       -0.06102        1.27293
H          2.17922        0.81130       -0.10154
H          0.41912        2.32729       -0.01236
H         -0.22302        1.59663        1.45881
H          2.84099        1.15496        2.86332
H          3.95898        1.13896        1.48495
H          0.92591        4.15179        1.46736
H          0.95590        3.08647        2.88262
H          3.13493        3.35268        0.75193
H          3.25462        4.87373        2.74127
H          3.24804        3.47278        3.81645
H          5.41065        4.06427        1.70257
H          5.42787        2.69220        2.81311
H          8.65894        8.64514        5.69317
H          8.52857        7.23860        6.77335
H          9.87658        7.35086        5.62077
H          6.89750        7.09104        4.83990
H          8.23613        7.18748        3.69311
H          9.19711        5.05866        4.65231
H          7.81416        4.93106        5.74093
H          7.66799        3.46890        3.69889
H          7.67159        4.89676        2.66310
H          5.49284        5.64561        3.66430
H          5.51856        4.27223        4.77392
