50
N-HEXADECANE.gamout	Energy:    -629.2945258
C          4.53816        6.86205        4.88963
C          3.43225        7.87447        4.55776
C          3.35312        9.05780        5.53093
C          4.61710        5.67881        3.91633
C          2.24766       10.07187        5.20078
C          5.72258        4.66445        4.24598
C          2.17098       11.25483        6.17562
C          5.79902        3.48168        3.27083
C          1.06729       12.27297        5.85074
C          6.90284        2.46351        3.59532
C          0.99610       13.45341        6.82772
C          6.97404        1.28326        2.61807
C         -0.10482       14.47195        6.50597
C          8.07521        0.26480        2.93941
C         -0.16060       15.64304        7.48839
C          8.13121       -0.90615        1.95679
H          5.51431        7.38291        4.90919
H          4.38401        6.47908        5.91632
H          3.58632        8.25751        3.53107
H          2.45613        7.35358        4.53819
H          4.32965        9.57798        5.55038
H          3.19945        8.67420        6.55749
H          4.77060        6.06258        2.88981
H          3.64051        5.15870        3.89688
H          1.27101        9.55188        5.18163
H          2.40136       10.45554        4.17423
H          5.56901        4.28054        5.27244
H          6.69932        5.18432        4.26512
H          3.14856       11.77316        6.19436
H          2.01837       10.86987        7.20186
H          5.95139        3.86695        2.24466
H          4.82149        2.96326        3.25209
H          1.21938       12.65902        4.82482
H          0.08892       11.75608        5.83289
H          7.88114        2.98055        3.61318
H          6.75096        2.07718        4.62118
H          1.97410       13.97129        6.84561
H          0.84394       13.06866        7.85429
H          7.12594        1.66830        1.59157
H          5.99613        0.76519        2.60023
H          0.04604       14.85816        5.48073
H         -1.08326       13.95671        6.48975
H          7.92453       -0.12166        3.96460
H          9.05356        0.78022        2.95566
H         -0.34936       15.29562        8.51861
H         -0.96123       16.35256        7.22562
H          0.78964       16.20398        7.49983
H          8.93202       -1.61555        2.21941
H          8.31984       -0.55860        0.92658
H          7.18111       -1.46733        1.94533
