59
N-NONADECANE.gamout	Energy:    -747.0629147
C          8.47805        0.35823        3.35150
C          7.67677        0.95300        4.51720
C          6.16499        1.03543        4.26584
C          9.98974        0.28311        3.60636
C          5.36968        1.63333        5.43410
C         10.79680       -0.30571        2.44126
C          3.85680        1.72036        5.18882
C         12.30919       -0.37196        2.69695
C          3.06632        2.31851        6.36098
C         13.12086       -0.95311        1.53092
C          1.55215        2.40733        6.12234
C         14.63362       -1.00993        1.78644
C          0.76578        3.00347        7.29848
C         15.44932       -1.58326        0.62055
C         -0.74829        3.09238        7.06641
C         16.95986       -1.63134        0.87908
C         -1.52717        3.68613        8.24594
C         17.76629       -2.20060       -0.28960
C         -3.03578        3.77047        8.00664
H          8.29203        0.95767        2.44003
H          8.09526       -0.65479        3.12374
H          8.06182        1.96550        4.74353
H          7.86299        0.35418        5.42907
H          5.77737        0.02390        4.03962
H          5.97923        1.63514        3.35449
H         10.17715       -0.31527        4.51827
H         10.36847        1.29768        3.83422
H          5.55710        1.03332        6.34496
H          5.75931        2.64429        5.65967
H         10.42053       -1.32067        2.21123
H         10.60835        0.29403        1.53044
H          3.66866        2.32102        4.27857
H          3.46603        0.70978        4.96362
H         12.68105        0.64468        2.92692
H         12.50018       -0.97080        3.60784
H          3.25668        1.71688        7.27019
H          3.45818        3.32862        6.58654
H         12.92853       -0.35277        0.62128
H         12.75169       -1.97019        1.29867
H          1.16017        1.39719        5.89721
H          1.36039        3.00959        5.21386
H         14.99916        0.00852        2.01870
H         14.82860       -1.60961        2.69595
H          0.95937        2.40043        8.20610
H          1.15805        4.01339        7.52442
H         15.25628       -0.98312       -0.28925
H         15.08855       -2.60297        0.38577
H         -0.94599        3.69701        6.16060
H         -1.14348        2.08314        6.84197
H         17.15489       -2.23112        1.78762
H         17.31931       -0.61205        1.11341
H         -1.13326        4.69482        8.47083
H         -1.33045        3.08201        9.15121
H         17.62711       -1.60097       -1.20551
H         18.84442       -2.21640       -0.06442
H         17.46054       -3.23454       -0.52476
H         -3.27073        4.40089        7.13184
H         -3.47052        2.77366        7.81866
H         -3.55746        4.20127        8.87574
