30
N-NONYL_MERCAPTAN.gamout	Energy:    -752.5151600
C         86.98726       10.04985        0.00011
C         85.67793        9.24912       -0.00009
C         85.87727        7.72791        0.00012
C         86.78645       11.57058       -0.00012
C         84.56921        6.92659       -0.00006
C         88.10019       12.36545        0.00011
C         84.76884        5.40686        0.00009
C         87.88467       13.87918       -0.00012
C         83.45947        4.61581       -0.00004
S         89.51548       14.73704        0.00040
H         87.58881        9.76218        0.88290
H         87.58921        9.76197       -0.88235
H         85.07648        9.53771       -0.88292
H         85.07603        9.53795        0.88236
H         86.47900        7.43946        0.88280
H         86.47937        7.43921       -0.88224
H         86.18757       11.86065       -0.88373
H         86.18710       11.86100        0.88307
H         83.96675        7.21387       -0.88288
H         83.96639        7.21395        0.88250
H         88.70046       12.08653        0.88494
H         88.70099       12.08633       -0.88431
H         85.37044        5.11947        0.88234
H         85.37071        5.11926       -0.88193
H         87.31622       14.18732       -0.89231
H         87.31554       14.18756        0.89155
H         83.64542        3.53004        0.00005
H         82.84756        4.84791       -0.88867
H         82.84725        4.84801        0.88837
H         89.03241       16.00172        0.00000
