29
N-NONANOIC_ACID.gamout	Energy:    -503.5921870
C          0.54079        0.72517        0.79543
C          1.59062        1.83510        0.86955
C          3.02178        1.31794        1.05579
C          4.07935        2.42515        1.13738
C          5.51324        1.91205        1.32361
C          6.56717        3.02313        1.41016
O         11.07264        3.48322        2.91552
C         10.44786        3.07295        1.79223
C          9.04548        3.62620        1.67082
O         10.97112        2.33303        0.99569
C          7.99782        2.50489        1.58925
H         -0.47288        1.13621        0.66380
H          0.73403        0.04149       -0.04903
H          0.53565        0.11635        1.71562
H          1.54369        2.45099       -0.04754
H          1.34319        2.52138        1.70088
H          3.06821        0.70062        1.97298
H          3.27018        0.63210        0.22324
H          4.03082        3.04395        0.22149
H          3.82677        3.10826        1.97084
H          5.56339        1.29204        2.23846
H          5.76703        1.23174        0.48875
H          6.52024        3.64562        0.49679
H          6.31507        3.70186        2.24701
H         11.95597        3.07362        2.90587
H          9.01961        4.21955        0.74020
H          8.84539        4.30982        2.50912
H          8.05849        1.88641        2.50312
H          8.26745        1.83965        0.75132
