42
N-NONYLCYCLOPENTANE.gamout	Energy:    -549.5726160
C          0.26748        1.06684        5.50019
C          0.71616        1.60221        6.88592
C          1.08348        1.87287        4.47969
C          1.47329        2.92669        6.60455
C          1.18991        3.26339        5.12583
C          2.14319        4.27082        4.46248
C          3.61317        3.85294        4.32310
C          6.83605        5.62847        2.88564
C          5.96729        4.53852        3.52710
C          8.33570        5.30653        2.79850
C          4.49253        4.93518        3.68091
C         10.61236        2.77560        0.82044
C         10.22570        3.92346        1.75449
C          8.71376        4.15356        1.86116
H          0.41041       -0.01979        5.39820
H         -0.80786        1.26171        5.34817
H          1.36996        0.88045        7.40070
H         -0.15003        1.76187        7.54752
H          2.08885        1.42988        4.36498
H          0.62023        1.89653        3.48027
H          1.16584        3.74088        7.27976
H          2.55611        2.78254        6.75606
H          0.17892        3.71180        5.08073
H          2.09362        5.21737        5.03216
H          1.74905        4.50987        3.45772
H          4.02790        3.59924        5.31550
H          3.68221        2.92992        3.71959
H          6.71711        6.56121        3.46581
H          6.45112        5.85379        1.87247
H          6.38192        4.28887        4.52269
H          6.02813        3.60916        2.93182
H          8.71759        5.08839        3.81442
H          8.86726        6.21658        2.46650
H          4.08201        5.19630        2.68667
H          4.42801        5.86050        4.28501
H         10.25784        2.95477       -0.20937
H         11.70541        2.64492        0.77567
H         10.17732        1.81771        1.15389
H         10.71195        4.85500        1.40938
H         10.63345        3.72663        2.76373
H          8.23360        3.21717        2.19996
H          8.30428        4.35693        0.85261
