26
N-OCTANOIC_ACID.gamout	Energy:    -464.3375357
C          5.03864        1.25080        0.93933
C          3.75672        0.76703        1.62575
C          2.51466        0.91491        0.74885
C          6.29808        1.10361        1.80210
C          1.23148        0.50776        1.43774
C          7.58573        1.56532        1.10955
O          0.21305        0.38002        0.55969
O          1.08892        0.32656        2.62173
C          8.84381        1.42579        1.97316
C         10.12458        1.87421        1.26663
H          5.17947        0.69871       -0.00920
H          4.91884        2.31284        0.65173
H          3.59566        1.32019        2.56616
H          3.86813       -0.29137        1.92082
H          2.59754        0.33920       -0.18849
H          2.38192        1.96605        0.42993
H          6.16513        1.67379        2.74073
H          6.40855        0.04616        2.10847
H          7.72282        0.99256        0.17254
H          7.47363        2.62202        0.79978
H         -0.57308        0.14359        1.08165
H          8.71338        2.00835        2.90399
H          8.95053        0.37259        2.29313
H         10.07030        2.93576        0.97019
H         11.00629        1.75462        1.91569
H         10.30354        1.28692        0.34970
