23
N-OENANTHIC_ACID.gamout	Energy:    -425.0798120
C          6.44370        1.20419        1.29670
C          5.22006        1.21758        2.21058
C          3.89426        1.09033        1.45298
C          7.75642        1.33179        2.03746
C          2.66518        1.10438        2.37073
O          8.80885        1.30747        1.19125
O          7.89013        1.44375        3.23065
C          1.31840        0.91487        1.65862
C          0.92698        2.05231        0.71259
H          6.40776        2.02171        0.55434
H          6.49596        0.27778        0.69709
H          5.31624        0.40093        2.94631
H          5.22735        2.14926        2.80171
H          3.81953        1.91045        0.71612
H          3.89478        0.15375        0.86330
H          2.77858        0.30772        3.12724
H          2.64568        2.05537        2.93612
H          9.60697        1.39477        1.74046
H          0.53276        0.80105        2.42547
H          1.33281       -0.03929        1.09966
H          0.89721        3.02068        1.24083
H          1.63392        2.15564       -0.12675
H         -0.07062        1.88148        0.27787
