23
N-PENTYL_ACETATE.gamout	Energy:    -425.0724188
C         -0.73863       -1.83854        0.10521
C          0.13707       -0.60982        0.10668
O          1.44113       -0.94446        0.06571
O         -0.25395        0.53095        0.14086
C          2.38100        0.13930        0.06099
C          3.78023       -0.44783        0.01833
C          4.87027        0.62841        0.01036
C          6.29502        0.06489       -0.03143
C          7.37869        1.14483       -0.03904
H         -0.49553       -2.47357        0.97140
H         -0.54400       -2.43765       -0.79807
H         -1.79276       -1.53946        0.13990
H          2.22092        0.75820        0.96032
H          2.17932        0.78681       -0.80947
H          3.87184       -1.08642       -0.87809
H          3.91259       -1.11505        0.88845
H          4.75903        1.26898        0.90532
H          4.71841        1.29706       -0.85776
H          6.40524       -0.57601       -0.92551
H          6.44548       -0.60379        0.83611
H          7.27920        1.80743       -0.91554
H          8.38689        0.70251       -0.06891
H          7.31967        1.77930        0.86165
