47
N-PENTADECANE.gamout	Energy:    -590.0381201
C          2.57224        1.58988        5.22127
C          3.29296        2.78306        4.57837
C          4.68914        2.45289        4.03275
C          1.17641        1.92017        5.76823
C          5.41320        3.64598        3.39275
C          0.45397        0.72826        6.41248
C          6.81125        3.31454        2.85122
C         -0.94279        1.06018        6.95742
C          7.54207        4.50612        2.21523
C         -1.67008       -0.12806        7.60100
C          8.94137        4.17268        1.68044
C         -3.06558        0.21136        8.13926
C          9.67345        5.36384        1.05084
C         -3.78706       -0.97720        8.77761
C         11.06914        5.01973        0.52656
H          2.48826        0.77222        4.48072
H          3.19687        1.18580        6.04069
H          3.37662        3.60008        5.31965
H          2.66914        3.18811        3.75879
H          4.60571        1.63577        3.29154
H          5.31167        2.04743        4.85312
H          0.55263        2.32444        4.94822
H          1.26075        2.73835        6.50822
H          4.79222        4.05301        2.57198
H          5.49585        4.46180        4.13554
H          1.07746        0.32421        7.23282
H          0.36978       -0.08987        5.67242
H          7.42963        2.90698        3.67373
H          6.72929        2.49829        2.10883
H         -0.85901        1.87904        7.69677
H         -1.56447        1.46451        6.13577
H          6.92636        4.91568        1.39168
H          7.62366        5.32126        2.95895
H         -1.05227       -0.53361        8.42515
H         -1.75620       -0.94774        6.86259
H          8.86344        3.35799        0.93567
H          9.55682        3.76391        2.50480
H         -2.98032        1.03091        8.87659
H         -3.68165        0.61614        7.31462
H          9.06113        5.77365        0.22592
H          9.75091        6.17693        1.79626
H         -3.92393       -1.80006        8.05537
H         -4.78409       -0.69007        9.14752
H         -3.21974       -1.38262        9.63313
H         11.56122        5.90061        0.08510
H         11.02642        4.23722       -0.25017
H         11.72073        4.64520        1.33473
