47
N-PENTADECYLIC_ACID.gamout	Energy:    -739.1311030
C          6.90984        1.51609        0.02531
C          5.59777        0.72101        0.07785
C          5.78496       -0.80111        0.02696
C          6.72291        3.03859        0.06992
C          4.47158       -1.59440        0.06491
C          8.03464        3.83415        0.00370
C          4.65731       -3.11656        0.00765
C          7.85030        5.35748        0.04342
C          3.34125       -3.90306        0.03269
C          9.16262        6.15140       -0.03406
C          3.53900       -5.41625       -0.02894
C          8.98247        7.67427        0.00287
C          2.24583       -6.20039       -0.00703
C         10.29607        8.46130       -0.08339
O          2.47042       -7.53089       -0.07646
O          1.13482       -5.73594        0.06218
C         10.10799        9.97925       -0.04674
H          7.56129        1.20207        0.86295
H          7.45952        1.24376       -0.89556
H          4.95145        1.03660       -0.76308
H          5.04289        0.99123        0.99608
H          6.42983       -1.11882        0.86831
H          6.34190       -1.06876       -0.89095
H          6.07000        3.34942       -0.76778
H          6.17505        3.31331        0.99108
H          3.83224       -1.27352       -0.77911
H          3.90969       -1.32918        0.98016
H          8.69222        3.52309        0.83773
H          8.57768        3.55760       -0.91990
H          5.29553       -3.43894        0.85240
H          5.22138       -3.38076       -0.90707
H          7.19203        5.66590       -0.79103
H          7.30920        5.63654        0.96732
H          2.70173       -3.59012       -0.81069
H          2.76682       -3.65393        0.94143
H          9.82510        5.84195        0.79675
H          9.69996        5.87172       -0.96009
H          4.15723       -5.78120        0.81114
H          4.08933       -5.72141       -0.93705
H          8.32094        7.98484       -0.82841
H          8.44866        7.95893        0.92952
H         10.96077        8.15145        0.74444
H         10.82691        8.17842       -1.01136
H          1.59649       -7.95745       -0.05659
H         11.07329       10.50560       -0.11584
H          9.47983       10.32776       -0.88447
H          9.61934       10.30283        0.88828
