17
N-PROPYL_ACETATE.gamout	Energy:    -346.5594546
O          4.24481        4.63442        2.30287
C          4.71604        3.65379        1.51020
C          4.37981        5.97833        1.81946
C          4.50801        2.29088        2.12815
O          5.23746        3.85584        0.44088
C          3.79340        6.91403        2.86064
C          3.88848        8.38067        2.43917
H          3.86270        6.06686        0.84843
H          5.44644        6.19141        1.63202
H          3.90601        1.67563        1.44175
H          5.48413        1.79318        2.23574
H          4.01203        2.35512        3.10447
H          2.74037        6.63432        3.03691
H          4.32260        6.75532        3.81614
H          3.45985        9.04153        3.20796
H          4.93583        8.68840        2.28178
H          3.34273        8.56699        1.49896
