12
N-PROPANOL.gamout	Energy:    -194.0844018
C         -0.19909        1.03242        0.66723
C          1.21836        0.51816        0.87024
C          2.16341        1.57775        1.43391
O         -0.98829       -0.01698        0.14537
H         -0.59904        1.40113        1.63666
H         -0.17753        1.90717       -0.01848
H          1.58894        0.14571       -0.10053
H          1.17379       -0.35736        1.54114
H          1.82074        1.94335        2.41688
H          2.23735        2.45040        0.76280
H          3.17965        1.17553        1.56684
H         -1.88666        0.31041        0.01734
