20
N-PROPYL_PROPIONATE.gamout	Energy:    -385.8172295
C          0.28982        0.48746        4.34828
C          1.66988        0.03950        3.86732
C          2.35284        1.09006        3.01025
O          3.63284        0.57711        2.61493
C          4.39867        1.37570        1.84775
C          5.71641        0.70722        1.51477
O          4.05784        2.47670        1.48887
C          6.62546        1.56951        0.64774
H          0.35197        1.40482        4.95776
H         -0.38642        0.69675        3.50237
H         -0.18417       -0.28974        4.96702
H          1.58985       -0.89376        3.28338
H          2.32139       -0.19013        4.72818
H          2.49669        2.03696        3.55841
H          1.76277        1.32893        2.10884
H          6.19589        0.43855        2.47222
H          5.48234       -0.25774        1.03235
H          6.86189        2.52122        1.14719
H          7.56929        1.04572        0.43476
H          6.14264        1.81594       -0.31008
