74
N-TETRACOSANE.gamout	Energy:    -943.3249791
C          3.77005        4.86127        8.04645
C          2.52172        4.67840        7.16823
C          2.01664        5.95947        6.48878
C          5.06014        5.18908        7.28201
C          0.73567        5.80071        5.64501
C          6.30474        5.26381        8.17526
C          0.93592        5.48569        4.15351
C          7.59403        5.69672        7.45878
C          1.57796        4.13424        3.81953
C          8.08330        4.77682        6.32804
C          1.59201        3.77946        2.32394
C          8.50429        3.36148        6.75628
C          2.45681        4.69509        1.45010
C          9.82247        3.27183        7.55164
C          2.45381        4.34768       -0.04709
C         11.07141        2.92496        6.72448
C          3.05973        2.99046       -0.44008
C         11.50181        3.94918        5.66583
C          4.56075        2.84046       -0.16221
C         12.80024        3.57295        4.93840
C          5.15471        1.52022       -0.66704
C         13.23744        4.58059        3.86805
C          6.65362        1.36998       -0.39541
C         14.52794        4.18819        3.14558
H          3.57586        5.64925        8.79923
H          3.93135        3.93256        8.62343
H          1.70548        4.27851        7.79564
H          2.72369        3.89806        6.41395
H          2.80923        6.39953        5.85708
H          1.82596        6.70407        7.28177
H          5.20869        4.42302        6.49924
H          4.94917        6.14950        6.74615
H          0.08128        5.03564        6.10444
H          0.16560        6.74317        5.69898
H          6.11382        5.97761        8.99613
H          6.45934        4.28668        8.66911
H         -0.05328        5.53409        3.66210
H          1.53043        6.30126        3.70330
H          7.44521        6.70754        7.03779
H          8.39127        5.80935        8.21403
H          2.61457        4.10584        4.20118
H          1.03648        3.33895        4.36247
H          8.92902        5.27198        5.82370
H          7.29244        4.69343        5.56360
H          1.94357        2.73823        2.22127
H          0.55451        3.78592        1.93835
H          8.58331        2.72627        5.85663
H          7.68979        2.91354        7.34968
H          3.49402        4.69341        1.83303
H          2.10583        5.73572        1.55053
H          9.99565        4.21390        8.10334
H          9.72089        2.49604        8.32722
H          1.41434        4.38612       -0.42023
H          2.99198        5.14561       -0.59003
H         11.91237        2.76374        7.42301
H         10.90632        1.94849        6.22954
H          2.88232        2.84217       -1.52039
H          2.50943        2.17311        0.06123
H         11.62299        4.94120        6.14103
H         10.69849        4.06847        4.91653
H          5.10089        3.68529       -0.63099
H          4.75281        2.92719        0.92316
H         13.61405        3.45489        5.67880
H         12.67749        2.57837        4.46836
H          4.61307        0.67575       -0.20158
H          4.97013        1.42943       -1.75376
H         13.36567        5.57603        4.33258
H         12.42558        4.69863        3.12661
H          6.87602        1.41065        0.68474
H          7.03282        0.40869       -0.77576
H          7.23570        2.17137       -0.88211
H         14.80620        4.93737        2.38799
H         15.37395        4.09742        3.84828
H         14.42313        3.21808        2.63004
