46
N-TETRADECYLAMINE.gamout	Energy:    -606.0538385
C        138.00368       10.03630       -0.01402
C        136.71348        9.20536       -0.01489
C        136.94405        7.68844       -0.01887
C        137.77050       11.55290       -0.00879
C        135.65155        6.86064       -0.01602
C        139.05973       12.38565       -0.00462
C        135.87662        5.34236       -0.01859
C        138.82625       13.90244        0.00175
C        134.58146        4.51848       -0.01263
C        140.11377       14.73692        0.00841
C        134.80069        3.00205       -0.00924
C        139.87618       16.25134        0.01555
C        133.50168        2.19307       -0.00711
C        141.16422       17.07700        0.02361
N        133.77639        0.76020        0.04613
H        138.61359        9.75801        0.86625
H        138.61289        9.76370       -0.89658
H        136.10237        9.48354       -0.89440
H        136.10575        9.47900        0.86837
H        137.55534        7.41017        0.86042
H        137.55078        7.41378       -0.90247
H        137.16053       11.83075       -0.88920
H        137.16047       11.82428        0.87363
H        135.03956        7.14003       -0.89461
H        135.04653        7.13755        0.86811
H        139.66843       12.10687        0.87638
H        139.67079       12.11446       -0.88640
H        136.48832        5.06243        0.85971
H        136.48061        5.06447       -0.90306
H        138.21759       14.18117       -0.87933
H        138.21479       14.17297        0.88351
H        133.96900        4.79762       -0.89083
H        133.97871        4.79748        0.87214
H        140.72280       14.46043        0.89011
H        140.72726       14.46946       -0.87305
H        135.39522        2.69908        0.87052
H        135.40061        2.71350       -0.89424
H        139.26817       16.52872       -0.86548
H        139.26363       16.51956        0.89633
H        132.88228        2.50849       -0.87771
H        132.91607        2.46193        0.89082
H        140.94900       18.15741        0.02879
H        141.77934       16.85736        0.91315
H        141.78500       16.86719       -0.86442
H        132.90434        0.23237        0.08832
H        134.24163        0.46145       -0.81304
