41
N-TRIDECANE.gamout	Energy:    -511.5255128
C          7.68762       -0.26635       -0.71194
C          6.41994        0.50397       -0.33841
C          5.13181       -0.31100       -0.50185
C          3.85724        0.45884       -0.13633
C          2.56394       -0.34933       -0.30227
C          1.29160        0.42941        0.05589
C         -0.00502       -0.37346       -0.11177
C         -1.27594        0.41055        0.24094
C         -2.57378       -0.39057        0.07403
C         -3.84456        0.39456        0.42499
C         -5.14233       -0.40638        0.26167
C         -6.41072        0.37902        0.61375
C         -7.69904       -0.43013        0.45090
H          8.58923        0.35375       -0.58320
H          7.81273       -1.16726       -0.08687
H          7.66072       -0.59856       -1.76390
H          6.49722        0.85655        0.70691
H          6.35000        1.41835       -0.95651
H          5.05615       -0.66399       -1.54811
H          5.20068       -1.22593        0.11711
H          3.93362        0.81460        0.90875
H          3.79531        1.37235       -0.75787
H          2.48847       -0.70534       -1.34734
H          2.62313       -1.26255        0.31988
H          1.36548        0.78811        1.10012
H          1.23651        1.34112       -0.56885
H         -0.07891       -0.73293       -1.15576
H          0.04862       -1.28466        0.51380
H         -1.20286        0.77181        1.28436
H         -1.32750        1.32070       -0.38635
H         -2.64736       -0.75304       -0.96895
H         -2.52139       -1.30000        0.70230
H         -3.77092        0.75779        1.46774
H         -3.89695        1.30345       -0.20406
H         -5.21970       -0.77085       -0.78052
H         -5.09078       -1.31465        0.89201
H         -6.33494        0.74360        1.65506
H         -6.46430        1.28625       -0.01634
H         -7.82873       -0.77710       -0.58858
H         -7.69687       -1.32353        1.09839
H         -8.58555        0.16849        0.71394
