17
N-VALERIC_ACID.gamout	Energy:    -346.5668093
C          0.92755        0.94291        1.06920
C          2.10129        1.83268        1.48517
C          3.46876        1.18798        1.24049
C          4.64718        2.09929        1.63372
C          5.97826        1.42778        1.38248
O          6.37830        0.68768        2.44087
O          6.61546        1.48963        0.36033
H         -0.03742        1.43807        1.26108
H          0.96996        0.69875       -0.00567
H          0.92960       -0.01033        1.62458
H          2.04750        2.79276        0.93969
H          2.00890        2.08985        2.55634
H          3.54206        0.24362        1.80901
H          3.57010        0.91712        0.17447
H          4.62706        3.02344        1.03654
H          4.57553        2.36668        2.69984
H          7.21649        0.26687        2.18160
