18
NAPHTHALENE.gamout	Energy:    -385.3686925
C          3.41274        1.81525        2.13710
C          2.83756        3.08548        2.47331
C          3.53192        3.93550        3.37801
C          1.59263        3.44950        1.89001
C          2.71829        0.96520        1.23287
C          4.65723        1.45111        2.72071
C          4.73688        3.55279        3.92665
C          0.94404        2.60307        1.01674
C          1.51307        1.34781        0.68460
C          5.30550        2.29738        3.59442
H          3.09169        4.90333        3.63275
H          1.15418        4.41770        2.14618
H          3.15828       -0.00272        0.97812
H          5.09586        0.48300        2.46455
H          5.25895        4.21618        4.62012
H         -0.01213        2.89677        0.57665
H          0.99086        0.68414       -0.00845
H          6.26144        2.00342        4.03477
