24
NEOPHYL_CHLORIDE.gamout	Energy:    -848.3549776
Cl        -1.87427        2.22692        0.45094
C         -1.39603       -0.49675       -0.06844
C          0.12184       -0.24958       -0.00956
C         -2.11937        0.76268       -0.58522
C         -1.70413       -1.62246       -1.08374
C         -1.99347       -0.89909        1.28881
C          0.82290        0.11637       -1.17321
C          0.86038       -0.36856        1.17581
C          2.19711        0.35418       -1.15409
C          2.23905       -0.13166        1.20137
C          2.91562        0.23190        0.03802
H         -3.20447        0.59040       -0.62520
H         -1.77637        1.03914       -1.59035
H         -1.21735       -2.56115       -0.77727
H         -1.34776       -1.37526       -2.09457
H         -2.78935       -1.80558       -1.14180
H         -1.54990       -1.83605        1.65755
H         -1.84504       -0.11733        2.04642
H         -3.07777       -1.06241        1.18512
H          0.29217        0.22416       -2.12212
H          0.36534       -0.64475        2.10646
H          2.70814        0.63875       -2.07704
H          2.78170       -0.23133        2.14448
H          3.99176        0.41923        0.05807
