17
NEOPENTANE.gamout	Energy:    -197.4761296
C          1.08280        1.04743        3.31117
C          1.81481        1.76134        2.16343
C          3.33110        1.70677        2.40960
C          1.48658        1.06413        0.83365
C          1.35898        3.22815        2.09872
H          1.38953       -0.00945        3.38500
H          1.29733        1.52579        4.28142
H         -0.00987        1.06805        3.16316
H          3.69210        0.66576        2.46075
H          3.88564        2.21224        1.60140
H          3.60021        2.20008        3.35845
H          1.80070        0.00700        0.84760
H          0.40383        1.08723        0.62513
H          1.99945        1.55336       -0.01128
H          1.58273        3.75800        3.03957
H          1.86642        3.76844        1.28228
H          0.27275        3.30078        1.92359
