14
NITROBENZENE.gamout	Energy:    -436.1940807
N          1.66108        0.00006       -0.00014
O          2.22469       -1.08231        0.00292
O          2.22458        1.08249       -0.00316
C          0.18228       -0.00016       -0.00061
C         -0.49223       -1.22136       -0.00101
C         -1.88771       -1.21309       -0.00118
C         -2.58391        0.00013       -0.00046
C         -1.88757        1.21318        0.00070
C         -0.49217        1.22099        0.00295
H          0.08078       -2.14790       -0.00132
H         -2.43472       -2.15879       -0.00188
H         -3.67651        0.00014       -0.00088
H         -2.43436        2.15898        0.00113
H          0.08098        2.14738        0.00379
