5
NITRIC_ACID.gamout	Energy:    -280.5518214
N          1.79247        1.00119        0.29109
O          2.44466        0.01434        0.44926
O          2.12656        2.16152        0.25735
O          0.42258        0.75933        0.11819
H          0.04885        1.65334        0.00484
