3
NITROSYL_CHLORIDE.gamout	Energy:    -589.7322482
Cl        34.15719       10.10767        0.00000
N         32.43151        9.10032        0.00000
O         32.55099        7.97159        0.00000
