4
NITROGEN_TRIFLUORIDE.gamout	Energy:    -353.6683096
F          0.14181       29.91697        0.12144
N          1.20313       29.29210       -0.47585
F          1.19348       28.06050        0.12142
F          2.27472       29.89934        0.12119
