4
NITROUS_ACID.gamout	Energy:    -205.4518040
N          0.93910        0.11372        0.02597
O          0.36000       -0.49044       -1.10407
O          2.10805        0.08585       -0.02622
H         -0.59319       -0.39845       -0.93185
