4
NO3-1.gamout	Energy:    -280.0044695
N          0.14492        0.58226       -0.00000
O         -0.01303       -0.66297        0.00000
O          1.30259        1.06718       -0.00000
O         -0.85438        1.34162        0.00000
