41
NORTRIPTYLINE.gamout	Energy:    -790.3181315
N          4.55957       -1.75719       -0.22537
C         -1.97521        0.78611       -1.76579
C         -0.48537        1.11668       -1.93731
C         -2.37854       -0.22364       -0.69896
C          0.10411        1.78002       -0.72023
C         -0.06610       -0.43897        0.42390
C         -1.51959       -0.78225        0.27866
C          0.29636        1.01038        0.44353
C          0.85228       -1.41991        0.56402
C         -3.72192       -0.63537       -0.71823
C          0.43880        3.13742       -0.70461
C         -2.05686       -1.71271        1.19100
C          0.80791        1.62074        1.59612
C          2.34005       -1.28162        0.73353
C         -4.23751       -1.55927        0.18754
C          0.95559        3.73824        0.44528
C          3.12929       -1.85517       -0.45116
C         -3.39161       -2.10568        1.15404
C          1.13912        2.97704        1.59999
C          5.37123       -2.24598       -1.32274
H         -2.36171        0.42276       -2.73281
H         -2.51788        1.72891       -1.56753
H         -0.37780        1.77697       -2.81067
H          0.07134        0.19221       -2.16634
H          0.48652       -2.45217        0.50578
H         -4.38291       -0.21479       -1.48159
H          0.29469        3.73118       -1.61126
H         -1.40084       -2.11626        1.96423
H          0.94135        1.02299        2.50047
H          2.64613       -1.83056        1.64712
H          2.64037       -0.23440        0.87876
H          2.78937       -2.89888       -0.65625
H          2.88214       -1.27563       -1.35900
H         -5.29006       -1.84705        0.13828
H          1.21291        4.80014        0.43849
H         -3.76929       -2.82458        1.88416
H          1.53718        3.43936        2.50663
H          4.80625       -2.25126        0.63237
H          5.13514       -3.28665       -1.64389
H          6.43696       -2.20911       -1.04708
H          5.24164       -1.59951       -2.20858
