12
O-DICHLOROBENZENE.gamout	Energy:   -1150.7341701
C          1.27671       -1.39570        0.00016
C          1.27670        1.39591       -0.00033
C          2.48521       -0.69876        0.00009
C          2.48509        0.69873        0.00011
C          0.06132       -0.70249        0.00005
C          0.06147        0.70254       -0.00016
Cl        -1.42862       -1.60358       -0.00004
Cl        -1.42845        1.60346        0.00006
H          1.25803       -2.48681       -0.00270
H          1.25806        2.48700       -0.00033
H          3.42731       -1.25132        0.00029
H          3.42721        1.25123        0.00032
