19
O-FLUOROPHENETOLE.gamout	Energy:    -484.6934663
C          6.41126        4.20943       -1.29596
O          6.96824        2.94755       -0.96558
C          6.15022        1.90945       -0.68743
C          7.55887        5.16522       -1.55111
C          6.78175        0.69151       -0.36119
C          4.74947        1.94236       -0.69698
F          8.12046        0.65305       -0.34907
C          6.05476       -0.44764       -0.05646
C          4.01146        0.79144       -0.38886
C          4.65478       -0.40167       -0.06919
H          5.76972        4.11572       -2.19343
H          5.77275        4.56984       -0.46667
H          7.17552        6.16370       -1.81313
H          8.19189        5.25747       -0.65540
H          8.18534        4.80208       -2.37998
H          4.22482        2.86516       -0.94501
H          6.60024       -1.36120        0.18862
H          2.92033        0.83986       -0.40221
H          4.07758       -1.29674        0.17044
