19
O-METHYLSTYRENE.gamout	Energy:    -348.4778752
C          0.89637        3.08209        0.79545
C          2.05733        3.76023        0.78709
C          3.45845        3.29950        0.77643
C          3.91233        1.98655        1.07768
C          4.42154        4.27821        0.44998
C          2.98958        0.86284        1.47725
C          5.28856        1.72390        1.01930
C          5.78292        3.99457        0.38866
C          6.22216        2.70145        0.67442
H          0.82108        1.99566        0.79414
H         -0.04869        3.63221        0.78129
H          1.97455        4.85361        0.75517
H          4.07748        5.29299        0.23176
H          2.38811        0.50039        0.62550
H          3.56709        0.00725        1.85671
H          2.28296        1.17356        2.26324
H          5.63472        0.71468        1.25811
H          6.49544        4.77993        0.12524
H          7.28595        2.45406        0.63928
