17
O-NITROTOLUENE.gamout	Energy:    -475.4506362
C          6.31732        1.86444       -0.66748
C          6.89726        0.62594       -0.34150
C          4.93688        2.05720       -0.70530
C          4.07284        0.99589       -0.42327
C          4.60697       -0.24870       -0.10750
C          5.99447       -0.42289       -0.06326
N          6.46286       -1.78091        0.29498
C          8.39986        0.50925       -0.32735
O          5.64138       -2.68399        0.28339
O          7.63969       -1.92603        0.59057
H          6.98209        2.70043       -0.89824
H          4.53607        3.04097       -0.95918
H          2.99023        1.13597       -0.45106
H          3.97268       -1.10648        0.11013
H          8.84745        1.44042       -0.70135
H          8.77559        0.31558        0.68797
H          8.75346       -0.32854       -0.94489
