32
O-TERPHENYL.gamout	Energy:    -693.4141672
C          5.22584        4.48353        2.76426
C          4.90426        3.49125        1.80087
C          6.51118        5.05614        2.73617
C          4.29563        4.92323        3.84756
C          5.89676        3.09734        0.88515
C          3.55048        2.87645        1.66107
C          7.47595        4.66286        1.81057
C          3.69328        3.99679        4.71640
C          4.06383        6.29066        4.07726
C          7.16876        3.66694        0.88304
C          2.40157        3.67168        1.51120
C          3.40142        1.48039        1.59069
C          2.88810        4.42318        5.77242
C          3.25214        6.71804        5.12936
C          1.15080        3.09179        1.29955
C          2.14855        0.89901        1.38794
C          2.66092        5.78544        5.98377
C          1.01646        1.70240        1.23899
H          6.76157        5.80607        3.48917
H          5.64516        2.34757        0.13221
H          8.46594        5.12455        1.82519
H          3.87333        2.92982        4.57380
H          4.51687        7.02998        3.41280
H          7.90977        3.34011        0.15001
H          2.49200        4.75889        1.54103
H          4.27978        0.84175        1.70846
H          2.43827        3.68409        6.43958
H          3.08224        7.78669        5.27996
H          0.27374        3.73147        1.17553
H          2.05954       -0.18902        1.34512
H          2.02770        6.11556        6.80972
H          0.03554        1.25061        1.07635
