17
O-TOLUIDINE.gamout	Energy:    -326.4762104
N          1.73967       -1.47616       -0.00089
C          0.62724        0.68471       -0.00019
C          0.57872       -0.73370       -0.00049
C         -0.57549        1.39778        0.00021
C         -0.67599       -1.37473       -0.00031
C          1.95949        1.38903       -0.00040
C         -1.81856        0.75940        0.00039
C         -1.85792       -0.63676        0.00010
H         -0.53173        2.49120        0.00041
H         -0.71377       -2.46817       -0.00052
H          2.56335        1.12781        0.88857
H          2.56291        1.12807       -0.88975
H          1.83033        2.48078       -0.00018
H         -2.74050        1.34438        0.00070
H         -2.81797       -1.16014        0.00020
H          2.64723       -1.03866       -0.00098
H          1.70290       -2.48441       -0.00110
