2
OH-1.gamout	Energy:     -75.6249264
O         -0.23515       -0.32667        0.00000
H          0.75265       -0.28413        0.00000
