80
OMA+1.gamout	Energy:   -1038.2378763
C          1.92963       -0.54601        0.62029
C          1.18314       -1.55523       -0.26340
C         -0.30548       -1.69759        0.08760
C         -1.07632       -2.65197       -0.83363
C         -2.57656       -2.72355       -0.49611
C         -3.29787       -3.67575       -1.45160
C          3.40970       -0.37122        0.25825
N         -4.82407       -3.73491       -1.40217
C          4.13328        0.65684        1.13126
C         -5.37031       -3.67172        0.01358
C         -5.22305       -6.47879        5.80706
C         -5.56008       -5.35879        4.81284
C         -5.11291       -5.64846        3.37312
C         -5.43575       -4.51801        2.38689
C         -4.98942       -4.82146        0.94668
C         -5.67967       -6.19394        7.24249
C         -5.32886       -7.31203        8.22613
C         -5.90314        3.67517       -3.40412
C         -6.38764        2.22154       -3.49365
C         -5.53648        1.23434       -2.68185
C         -5.98359       -0.22879       -2.79964
C         -5.12668       -1.17615       -1.94186
C         -5.45928       -2.63173       -2.25204
C         -6.74360        4.66370       -4.22001
C         -6.24373        6.10683       -4.12934
C         -5.24099       -5.02847       -2.03861
H          1.84752       -0.85500        1.67968
H          1.42300        0.43628        0.55416
H          1.67287       -2.54458       -0.19032
H          1.27750       -1.24886       -1.32247
H         -0.78047       -0.69921        0.05010
H         -0.40658       -2.03978        1.13443
H         -0.63534       -3.66416       -0.77954
H         -0.95955       -2.32337       -1.88276
H         -2.99422       -1.70850       -0.54427
H         -2.69738       -3.06673        0.54449
H         -2.95346       -4.70249       -1.27035
H         -3.05563       -3.43681       -2.49663
H          3.49048       -0.07358       -0.80382
H          3.92234       -1.34836        0.33692
H          3.67767        1.65815        1.03879
H          5.19258        0.74703        0.84485
H          4.10101        0.37571        2.19788
H         -6.46259       -3.60998       -0.09575
H         -5.02882       -2.71691        0.42737
H         -4.13033       -6.65450        5.80132
H         -5.68062       -7.42532        5.46164
H         -5.09632       -4.41477        5.15622
H         -6.65144       -5.17824        4.82317
H         -5.58829       -6.58468        3.02536
H         -4.02321       -5.83995        3.35815
H         -4.95388       -3.58288        2.72673
H         -6.52288       -4.31841        2.39467
H         -3.89952       -4.99054        0.93448
H         -5.46041       -5.76430        0.62172
H         -6.77286       -6.02717        7.24938
H         -5.22970       -5.24415        7.58627
H         -5.79070       -8.26965        7.93186
H         -5.67927       -7.07231        9.24178
H         -4.23874       -7.47383        8.28107
H         -4.85072        3.73028       -3.74111
H         -5.89531        3.99335       -2.34435
H         -6.39638        1.90637       -4.55389
H         -7.43829        2.16335       -3.15358
H         -5.54585        1.53359       -1.61707
H         -4.48191        1.31232       -3.00636
H         -5.93465       -0.54399       -3.85817
H         -7.04347       -0.32439       -2.50239
H         -5.29714       -0.94705       -0.87704
H         -4.06532       -0.97380       -2.15226
H         -6.54215       -2.79833       -2.16635
H         -5.17435       -2.86956       -3.28589
H         -7.79524        4.61440       -3.88244
H         -6.75352        4.34413       -5.27825
H         -6.26253        6.47688       -3.09020
H         -6.86900        6.78252       -4.73292
H         -5.20702        6.19803       -4.49495
H         -4.83226       -5.86877       -1.47186
H         -4.85564       -5.05969       -3.06373
H         -6.33503       -5.08509       -2.05236
