7
OXALATE_MONOANION-1.gamout	Energy:    -377.3133558
O         -1.62407       -0.56895        0.00000
O          1.76403        0.52265        0.00000
O          0.33181       -1.72754        0.00000
O         -0.06746        1.78524        0.00000
C         -0.39254       -0.71860       -0.00000
C          0.40512        0.66845       -0.00000
H          2.08961        1.44065        0.00000
