3
OXYGEN_FLUORIDE.gamout	Energy:    -274.3362583
F         34.01599        9.90593        0.00000
O         32.72387        9.36935        0.00000
F         32.92773        7.98522        0.00000
