14
P-BROMOBENZALDEHYDE.gamout	Energy:   -2918.2487044
Br         7.85109        4.04925       -1.27036
C          6.62768        2.65239       -0.86371
C          7.11856        1.41170       -0.44783
C          6.21372        0.39208       -0.15185
C          5.25167        2.88541       -0.98690
C          4.83431        0.60648       -0.26898
C          4.36028        1.85939       -0.68829
C          3.88108       -0.48290        0.04780
O          2.67755       -0.38812       -0.02497
H          8.19312        1.24907       -0.35811
H          6.58214       -0.58481        0.17476
H          4.89106        3.86144       -1.31382
H          3.28102        2.00618       -0.77361
H          4.36671       -1.44067        0.37256
