15
P-CHLOROTOLUENE.gamout	Energy:    -730.5941372
C         -2.91366        1.19314        0.04057
C         -1.52267        1.32845        0.04056
C         -0.72441        0.18512       -0.00024
C         -1.30712       -1.08476       -0.04091
C         -3.52689       -0.06633        0.00036
C         -2.69716       -1.19836       -0.04037
C         -5.02806       -0.21439        0.00041
H         -5.38035       -0.73910       -0.90368
H         -5.52892        0.76422        0.03525
H         -5.37404       -0.79930        0.86928
H         -3.53419        2.09321        0.07273
H         -1.05809        2.31502        0.07199
H         -3.14728       -2.19521       -0.07221
H         -0.67355       -1.97238       -0.07269
Cl         1.01882        0.34140       -0.00077
