15
P-CHLOROBENZOTRIFLUORIDE.gamout	Energy:   -1027.9996575
F          6.76923        4.17883       -0.52541
C          7.24374        3.00669       -0.98381
F          7.39597        3.14097       -2.31620
F          8.47274        2.83448       -0.46541
C          6.32808        1.85823       -0.64261
C          6.85416        0.57446       -0.46384
C          4.94746        2.06300       -0.55307
C          6.00875       -0.50196       -0.19742
C          4.09389        0.99257       -0.28712
C          4.63080       -0.28579       -0.11137
Cl         3.56842       -1.62802        0.22457
H          7.93220        0.41493       -0.52493
H          4.53614        3.06549       -0.68377
H          6.41167       -1.50505       -0.05302
H          3.01650        1.14441       -0.21158
