14
P-CHLORONITROBENZENE.gamout	Energy:    -895.5969145
C          6.35692        1.83060       -0.63801
C          6.89114        0.58718       -0.30611
C          4.97095        1.97661       -0.70376
C          6.02943       -0.48532       -0.04635
C          4.10514        0.91358       -0.44648
N          4.40518        3.29446       -1.05599
C          4.63989       -0.32939       -0.11454
Cl         6.69618       -2.03896        0.36864
O          5.19019        4.20305       -1.27379
O          3.18967        3.38993       -1.10656
H          6.99405        2.68956       -0.84697
H          7.97046        0.44162       -0.24688
H          3.02925        1.07385       -0.50983
H          3.98866       -1.17954        0.09204
