12
P-DICHLOROBENZENE.gamout	Energy:   -1150.7374966
C         -0.69814        1.21380        0.00002
C          0.69810        1.21380        0.00019
C          0.69809       -1.21390        0.00065
C         -0.69815       -1.21377        0.00002
C         -1.39043        0.00002       -0.00014
C          1.39034       -0.00006        0.00030
Cl         3.13737        0.00003       -0.00028
Cl        -3.13731        0.00000       -0.00024
H         -1.25048        2.15478        0.00336
H          1.25048        2.15474       -0.00004
H          1.25043       -2.15487        0.00076
H         -1.25056       -2.15467       -0.00008
