12
P-DIBROMOBENZENE.gamout	Energy:   -5378.1919764
C          0.85045        1.07594       -0.28535
C          1.37794       -0.17356        0.04820
C         -0.53542        1.25038       -0.33396
C         -1.37743        0.17319       -0.04809
C         -0.84997       -1.07636        0.28547
Br        -3.26708        0.41251       -0.11463
C          0.53593       -1.25053        0.33401
Br         3.26684       -0.41236        0.11458
H          1.51620        1.91153       -0.50705
H         -0.95661        2.22303       -0.59360
H         -1.51571       -1.91193        0.50716
H          0.95715       -2.22315        0.59364
