21
P-ETHYLTOLUENE.gamout	Energy:    -349.7052192
C          2.69756        5.43634        0.75714
C          3.19278        4.75596        2.04266
C          4.36286        3.82711        1.80761
C          5.68351        4.30229        1.82091
C          4.16691        2.46896        1.52632
C          6.76018        3.45352        1.56693
C          5.24550        1.61826        1.27140
C          6.56348        2.09280        1.28512
C          7.73504        1.18225        1.01120
H          1.83432        6.09044        0.96011
H          2.38900        4.68973        0.00729
H          3.49154        6.05153        0.30335
H          3.47881        5.53024        2.77494
H          2.36374        4.18880        2.49892
H          5.87239        5.35792        2.03858
H          3.15064        2.06397        1.51191
H          7.77723        3.85651        1.58674
H          5.05688        0.56168        1.06062
H          8.32089        1.53137        0.14376
H          8.42837        1.14600        1.86903
H          7.40609        0.15374        0.80236
