21
P-PHENETIDINE.gamout	Energy:    -440.8542667
C          7.68677        5.26177       -0.94585
C          6.52498        4.30607       -0.74832
O          7.05217        3.00042       -0.63592
C          6.20587        1.94792       -0.44459
N          3.86348       -1.52242        0.20616
C          4.63042       -0.38123       -0.04787
C          6.03537       -0.45597       -0.13147
C          4.03988        0.88557       -0.16776
C          6.80538        0.68486       -0.32690
C          4.81107        2.03816       -0.36302
H          7.32312        6.29718       -1.03916
H          8.37908        5.20802       -0.09138
H          8.24700        5.00261       -1.85757
H          5.82107        4.36594       -1.60210
H          5.95186        4.56993        0.16259
H          2.89343       -1.46286       -0.08548
H          4.28547       -2.39799       -0.08546
H          6.52827       -1.42800       -0.03815
H          2.95179        0.97910       -0.10408
H          7.89354        0.62133       -0.39343
H          4.30478        2.99979       -0.45170
