37
P-TERT-OCTYLPHENOL.gamout	Energy:    -621.0992673
C         10.02918        1.63437       -2.56202
C          8.55072        1.75143       -2.97527
C          8.52027        2.18772       -4.45540
C          7.88572        0.37176       -2.86877
C          7.80570        2.86234       -2.16970
C          7.32035        2.71063       -0.68909
C          8.46928        2.33073        0.25871
C          6.83650        4.11423       -0.23897
C          6.11939        1.75317       -0.55618
O          2.75072       -0.73364       -0.10635
C          3.81893        0.08916       -0.27738
C          6.07797        0.69112        0.36264
C          4.95900        1.95678       -1.32243
C          4.95788       -0.13003        0.50312
C          3.83042        1.14718       -1.19477
H         10.15570        1.24545       -1.54306
H         10.53589        2.61204       -2.61419
H         10.56190        0.94801       -3.24020
H          7.48818        2.22950       -4.83990
H          8.96999        3.18489       -4.59224
H          9.08245        1.47899       -5.08508
H          6.82622        0.40409       -3.16519
H          7.92498       -0.02785       -1.84541
H          8.39874       -0.34805       -3.52810
H          8.45658        3.75345       -2.19532
H          6.92086        3.14558       -2.76163
H          8.15457        2.42425        1.30962
H          8.82949        1.30338        0.11345
H          9.32332        3.00897        0.11107
H          6.42693        4.07572        0.78291
H          6.04892        4.50795       -0.89874
H          7.66920        4.83657       -0.24461
H          2.04155       -0.46738       -0.70597
H          6.93750        0.47864        0.99883
H          4.91599        2.77446       -2.04526
H          4.95107       -0.95194        1.22128
H          2.94821        1.34294       -1.81264
