26
P-TERT-BUTYLCATECHOL.gamout	Energy:    -539.2162704
O          3.33690        1.43394        0.60921
O          2.12484        3.71652       -0.02665
C         -0.83006       -1.21271       -0.02519
C         -0.08477        0.13358       -0.04073
C         -0.76572       -1.82578        1.39009
C         -0.17389       -2.18370       -1.02986
C         -2.31050       -1.06257       -0.41040
C          1.28533        0.18376        0.28893
C         -0.69922        1.34500       -0.37078
C          2.01689        1.37009        0.29362
C          0.02381        2.54610       -0.37069
C          1.37636        2.58331       -0.04343
H          0.27068       -2.01079        1.71140
H         -1.23161       -1.15772        2.13161
H         -1.29762       -2.79134        1.41892
H         -0.70021       -3.15262       -1.02972
H         -0.20847       -1.77711       -2.05289
H          0.88060       -2.38068       -0.78343
H         -2.80228       -2.04767       -0.38611
H         -2.43090       -0.65710       -1.42682
H         -2.85176       -0.40476        0.28712
H          1.81902       -0.73406        0.55578
H         -1.75496        1.38457       -0.63597
H         -0.48233        3.48084       -0.63310
H          3.65390        0.54594        0.81876
H          1.56510        4.46355       -0.27492
