18
P-TOLUIC_ACID.gamout	Energy:    -459.5459865
C          6.33678        1.84713       -0.67248
C          6.87017        0.60294       -0.33621
C          4.94715        2.02747       -0.71607
C          6.03837       -0.48700       -0.03884
C          4.10614        0.94495       -0.41744
C          4.32165        3.33061       -1.06593
C          4.64714       -0.29206       -0.08321
C          6.61335       -1.83825        0.30142
O          5.22600        4.29948       -1.33387
O          3.13009        3.53615       -1.11550
H          6.99527        2.68595       -0.90022
H          7.95520        0.47395       -0.30255
H          3.02633        1.09937       -0.45152
H          3.98028       -1.12656        0.15040
H          7.67983       -1.77031        0.56146
H          6.08199       -2.29939        1.14925
H          6.52298       -2.53254       -0.55262
H          4.71184        5.09650       -1.54750
