18
P-XYLENE.gamout	Energy:    -310.4492347
C          1.00571        0.85223        0.68410
C          1.80923        1.25345        1.89697
C          3.21166        1.23773        1.87473
C          1.18515        1.66645        3.08214
C          3.95743        1.62313        2.98914
C          1.93144        2.05221        4.19726
C          3.33269        2.04106        4.17329
C          4.13817        2.47670        5.37239
H          0.95222        1.67237       -0.05442
H         -0.02809        0.58902        0.95450
H          1.45278       -0.01384        0.17033
H          3.73125        0.91487        0.96766
H          0.09273        1.68489        3.13556
H          5.04988        1.59682        2.93902
H          1.41199        2.36690        5.10712
H          5.12715        1.99319        5.39265
H          3.62346        2.23510        6.31542
H          4.30985        3.56826        5.36694
