21
PARALDEHYDE.gamout	Energy:    -460.9322235
O         -1.25780        0.11585       -0.50030
O         -0.92292        1.41721        1.38346
O         -1.12697       -0.88061        1.58395
C         -1.50750        1.36381        0.10340
C         -1.71229       -0.94701        0.30434
C         -1.36898        0.36097        2.20219
C         -0.91101        2.44980       -0.75325
C         -1.32682       -2.25124       -0.34243
C         -0.62090        0.40963        3.50877
H         -2.61083        1.48800        0.21252
H         -2.81861       -0.85651        0.41630
H         -2.46856        0.47220        2.35466
H          0.17450        2.29056       -0.83285
H         -1.35216        2.42035       -1.75975
H         -1.09696        3.43416       -0.30051
H         -1.77202       -2.32097       -1.34515
H         -0.23153       -2.30008       -0.43161
H         -1.67418       -3.09461        0.27139
H          0.45540        0.29774        3.31163
H         -0.79615        1.37399        4.00645
H         -0.95288       -0.40727        4.16529
