19
PENTAMETHYLENE_DICYANIDE.gamout	Energy:    -381.7207331
N         -0.02333       36.85225        0.00028
C          1.08507       37.18955        0.00002
C          2.48103       37.63507       -0.00024
C          2.63197       39.16888       -0.00004
C          4.10051       39.60733       -0.00004
C          4.28220       41.12955        0.00012
C          5.76677       41.54317        0.00018
C          5.96082       42.99597        0.00040
N          6.09366       44.14692        0.00041
H          2.97849       37.19850        0.88347
H          2.97814       37.19878       -0.88429
H          2.11529       39.58164       -0.88313
H          2.11531       39.58144        0.88317
H          4.60857       39.17779        0.88334
H          4.60852       39.17802       -0.88357
H          3.78749       41.56870       -0.88286
H          3.78752       41.56855        0.88319
H          6.28252       41.12878        0.88397
H          6.28259       41.12909       -0.88372
