45
PENTADECANENITRILE.gamout	Energy:    -642.9052633
N         -7.83195        6.75996       -0.00035
C         -0.59439       -0.15674        0.00021
C          0.93879       -0.21921        0.00027
C         -1.16098        1.27038        0.00028
C          1.51323       -1.64324        0.00015
C         -2.69405        1.33889        0.00022
C          3.04713       -1.69711        0.00013
C         -3.25521        2.76843        0.00022
C          3.63222       -3.11693       -0.00009
C         -4.78882        2.83995        0.00007
C          5.16568       -3.16142       -0.00006
C         -5.34046        4.27046        0.00001
C          5.75500       -4.57690       -0.00028
C         -6.88174        4.31355       -0.00019
C          7.28435       -4.60274       -0.00032
C         -7.42350        5.67547       -0.00028
H         -0.98063       -0.70256        0.88200
H         -0.98057       -0.70239       -0.88172
H          1.32348        0.32819       -0.88125
H          1.32351        0.32800        0.88189
H         -0.77388        1.81568        0.88195
H         -0.77382        1.81575       -0.88134
H          1.13006       -2.19112       -0.88174
H          1.13006       -2.19131        0.88193
H         -3.08237        0.79494       -0.88176
H         -3.08253        0.79491        0.88212
H          3.42838       -1.14715       -0.88133
H          3.42847       -1.14741        0.88173
H         -2.86795        3.31286       -0.88161
H         -2.86815        3.31289        0.88211
H          3.25333       -3.66813        0.88162
H          3.25335       -3.66788       -0.88198
H         -5.17985        2.29895       -0.88232
H         -5.18010        2.29897        0.88235
H          5.54590       -2.61068       -0.88169
H          5.54590       -2.61098        0.88177
H         -4.96997        4.82032       -0.88244
H         -4.97023        4.82034        0.88256
H          5.37804       -5.12861       -0.88156
H          5.37810       -5.12890        0.88086
H         -7.28352        3.78615       -0.88338
H         -7.28377        3.78618        0.88290
H          7.67000       -5.63453       -0.00045
H          7.69623       -4.09486        0.88869
H          7.69624       -4.09464       -0.88919
