46
PENTADECANOATE-1.gamout	Energy:    -738.5515300
O          9.00731        0.45176        0.02410
O          7.82711       -1.48247        0.07269
C         -1.12527        0.49889       -0.01603
C         -2.40110       -0.35341        0.00241
C          0.17616       -0.31387        0.00528
C         -3.70146        0.46069       -0.01476
C          1.45311        0.53789       -0.01641
C         -4.97702       -0.39202        0.00172
C          2.75764       -0.27122        0.01315
C         -6.27754        0.42229       -0.01464
C          4.03775        0.57865       -0.01108
C         -7.55316       -0.42958       -0.00024
C          5.34192       -0.23071        0.02848
C         -8.85094        0.38588       -0.01779
C          6.62346        0.60105        0.00291
C        -10.11740       -0.47225       -0.00354
C          7.96708       -0.23830        0.03778
H         -1.13536        1.14708       -0.91323
H         -1.13753        1.18891        0.84942
H         -2.39165       -1.00341        0.89815
H         -2.39154       -1.04131       -0.86458
H          0.18461       -0.96010        0.90391
H          0.18573       -1.00623       -0.85837
H         -3.71214        1.14740        0.85319
H         -3.71136        1.11174       -0.90979
H          1.43716        1.23466        0.84401
H          1.44331        1.18039       -0.91812
H         -4.96675       -1.07808       -0.86667
H         -4.96749       -1.04348        0.89638
H          2.77094       -0.97045       -0.84504
H          2.76524       -0.91132        0.91651
H         -6.28684        1.07452       -0.90880
H         -6.28871        1.10737        0.85457
H          4.02672        1.21673       -0.91716
H          4.01617        1.28348        0.84423
H         -7.54681       -1.08136        0.89437
H         -7.54411       -1.11498       -0.86932
H          5.36231       -0.87278        0.92740
H          5.37413       -0.94275       -0.81580
H         -8.85994        1.03694       -0.91176
H         -8.86297        1.07057        0.85065
H          6.65929        1.24015       -0.90122
H          6.65249        1.30633        0.85670
H        -11.02647        0.15018       -0.01872
H        -10.16480       -1.10679        0.89822
H        -10.16026       -1.14318       -0.87883
