8
PENTAFLUOROETHANE.gamout	Energy:    -575.3619351
F          0.75195        1.09919       -1.22388
C          0.56805        0.01209       -0.46839
F          1.47056        0.00927        0.51060
F          0.75127       -1.07113       -1.22928
C         -0.86175        0.01053        0.08952
F         -1.03108       -1.08959        0.84729
F         -1.03093        1.10682        0.85260
H         -1.59701        0.01253       -0.73465
