33
PENTMPYR+1.gamout	Energy:    -448.1950618
N          0.41180        0.34809       -0.02474
C         -0.63409        0.90493       -1.00965
C          1.36963        1.51933        0.25099
C          1.01479        2.59655       -0.76829
H          2.40300        1.15835        0.19641
H          1.17894        1.86076        1.27669
C         -0.49533        2.41979       -0.94016
H         -1.61985        0.50584       -0.74063
H         -0.36762        0.53298       -2.00777
H         -1.04419        2.83412       -0.07862
H         -0.89436        2.89811       -1.84512
H          1.53660        2.42128       -1.72291
H          1.30612        3.59388       -0.41134
C         -0.26947       -0.07364        1.23883
H         -0.89242        0.75417        1.59727
H          0.48079       -0.32128        1.99780
H         -0.89606       -0.95043        1.03450
C          1.13469       -0.82598       -0.66876
C          2.10473       -1.60691        0.21447
H          1.65743       -0.40071       -1.53823
H          0.34437       -1.48874       -1.05157
C          2.86589       -2.64955       -0.62209
H          1.56290       -2.12547        1.02301
H          2.82452       -0.92502        0.69773
C          3.77862       -3.56734        0.20218
H          2.13550       -3.27166       -1.16966
H          3.46303       -2.12793       -1.39314
C          4.93468       -2.85928        0.91106
H          4.58610       -2.13929        1.67053
H          5.57436       -2.31436        0.19591
H          5.57421       -3.58637        1.43296
H          3.16898       -4.12069        0.93994
H          4.18500       -4.33132       -0.47991
