5
PERCHLORYL_FLUORIDE.gamout	Energy:    -784.7188932
Cl        -0.03949        1.79258       -0.08213
F          1.28418        1.78350        0.98630
O          0.19253        3.00047       -0.84994
O         -1.16234        1.83422        0.83386
O          0.13647        0.54888       -0.80696
