20
PERFLUORO-3-METHYLPENTANE.gamout	Energy:   -1624.5485931
C          1.09078       -0.25696       -0.01346
C          0.64644        0.08959        1.45028
C          0.98626        1.50960        2.03842
C          0.50999        2.74941        1.19449
C         -1.00576        3.04021        1.01944
C          0.58158        1.57807        3.56367
F          0.25367        0.27551       -0.89910
F          1.04689       -1.58229       -0.14486
F          2.32865        0.15577       -0.26479
F         -0.67921       -0.12923        1.50755
F          1.26619       -0.80930        2.23928
F          2.34714        1.60860        2.02932
F          1.05566        3.84802        1.74106
F          1.02651        2.61409       -0.04393
F         -1.60365        3.16821        2.20315
F         -1.13712        4.18101        0.34852
F         -1.59665        2.06748        0.33271
F          1.41035        0.81579        4.26918
F          0.67670        2.82392        4.02773
F         -0.66616        1.15421        3.75852
