21
PERFLUOROMETHYLCYCLOHEXANE.gamout	Energy:   -1662.5861753
C         -3.45455        0.34865        2.52064
F         -3.09624        1.32456        3.35384
F         -2.40833       -0.45811        2.34919
F         -4.44520       -0.34662        3.07350
C         -3.87408        0.96458        1.14182
F         -2.78349        1.64836        0.69014
C         -5.03792        1.99680        1.28029
C         -4.20914       -0.12731        0.07441
F         -6.09457        1.39705        1.86104
F         -4.63853        3.02513        2.04532
C         -5.51561        2.58691       -0.08133
F         -5.18174       -0.92751        0.54712
F         -3.11508       -0.86445       -0.17197
C         -4.68859        0.46048       -1.28712
F         -6.62398        3.31036        0.13946
F         -4.55566        3.38908       -0.56636
C         -5.82862        1.49886       -1.13860
F         -5.12107       -0.55268       -2.05495
F         -3.64379        1.05743       -1.88390
F         -6.94656        0.85152       -0.76463
F         -6.03213        2.09279       -2.32569
