18
PERFLUORONAPHTHALENE.gamout	Energy:   -1178.3324411
C          6.84720        1.19334        1.52780
C          5.70961        0.52661        1.93205
F          7.91089        1.26014        2.31675
C          6.89484        1.81799        0.26139
C          5.80383        1.76700       -0.58114
F          8.00222        2.45116       -0.10066
C          4.61398        1.08928       -0.19996
F          5.89299        2.37009       -1.76314
F          5.70923       -0.04631        3.13204
C          4.56565        0.45202        1.09128
C          3.37580       -0.22535        1.47171
C          3.46984        1.01419       -1.03983
F          3.46958        1.58686       -2.23995
C          2.33223        0.34779       -0.63631
C          2.28482       -0.27656        0.62968
F          1.26903        0.28140       -1.42577
F          1.17775       -0.90978        0.99204
F          3.28684       -0.82824        2.65348
