28
PERFLUORODECALIN.gamout	Energy:   -2175.6456334
C         51.77304       28.53269        1.35922
C         53.23045       29.08700        1.28280
F         51.23741       28.90707        2.53108
F         51.05619       29.06525        0.35742
C         51.71083       26.98990        1.24879
C         52.50677       26.43815        0.02410
F         50.42973       26.61048        1.12701
F         52.22413       26.46038        2.37074
C         53.97749       26.98029       -0.03986
F         52.53763       25.10017        0.13427
F         51.84111       26.77105       -1.09302
F         53.15155       30.42464        1.19645
C         54.02432       28.54285        0.04184
F         53.85954       28.75708        2.42186
C         55.49373       29.08556       -0.02457
F         53.39261       29.04098       -1.06269
C         54.76856       26.43736       -1.28135
F         54.61108       26.48078        1.06328
C         56.22454       26.99026       -1.36160
F         54.84684       25.09933       -1.19536
F         54.13751       26.76804       -2.41871
C         56.29095       28.53141       -1.24617
F         56.75571       26.61799       -2.53624
F         56.94244       26.45445       -0.36361
F         57.57277       28.90638       -1.12010
F         55.78229       29.06333       -2.36766
F         55.46161       30.42352       -0.13904
F         56.15926       28.75577        1.09267
