4
PHOSPHINE.gamout	Energy:    -342.9865850
P         -0.69647        0.40254        0.23168
H          0.72985        0.41790        0.33958
H         -0.66048        0.14408       -1.17488
H         -0.77068        1.81864        0.04379
