38
PINDOLOL.gamout	Energy:    -804.3901010
O          1.19217       -2.62561        0.33098
O          1.42008       -4.24054       -2.05560
N          4.24644       -3.74973       -2.47455
N         -1.17343        0.96699        1.93758
C          2.34689       -4.26362       -0.99254
C          3.47680       -3.29074       -1.33716
C          5.12439       -2.79108       -3.13864
C          1.68818       -3.94482        0.35126
C         -0.03319       -0.84785        1.25963
C          0.52245       -2.13958        1.40859
C          5.61078       -3.40573       -4.45183
C          6.30730       -2.29738       -2.28694
C         -0.74030       -0.27339        2.34825
C         -0.06491        0.10149        0.18210
C          0.35157       -2.80759        2.62234
C         -0.91381       -0.93723        3.57230
C         -0.76766        1.19008        0.63686
C         -0.35919       -2.20389        3.68515
H          2.79188       -5.27780       -0.87402
H          4.07633       -3.11475       -0.41501
H          3.00654       -2.32695       -1.59126
H          4.49398       -1.91609       -3.38535
H          4.75766       -4.60495       -2.25302
H          2.42563       -4.07640        1.16699
H          0.86190       -4.66018        0.53699
H          6.21065       -2.69070       -5.03679
H          6.24399       -4.29037       -4.25890
H          4.75064       -3.73112       -5.05471
H          5.97017       -1.82459       -1.35089
H          6.91006       -1.55314       -2.83379
H          6.97304       -3.13797       -2.02111
H          0.37385       -0.01288       -0.80519
H          0.76671       -3.80371        2.77404
H          0.77474       -4.94524       -1.91888
H         -1.70900        1.61081        2.50295
H         -1.46045       -0.48216        4.39991
H         -1.01574        2.12136        0.12986
H         -0.46996       -2.75923        4.62051
