47
POLY_IPP5.gamout	Energy:    -590.0143198
C          0.88635        0.52274       -0.36828
C         -0.42217        0.92186       -1.08420
H         -0.46335        2.02278       -1.14825
H         -0.38871        0.57158       -2.13266
C         -1.71445        0.44068       -0.41674
H         -1.79770        0.83587        0.60999
H         -1.76918       -0.65708       -0.35010
H         -2.60066        0.78297       -0.97552
H          0.69906        0.43088        0.71917
H          1.60716        1.35140       -0.47203
C          1.59923       -0.75361       -0.86847
H          1.83683       -0.57843       -1.93603
C          0.70982       -2.00176       -0.79004
C          2.93947       -0.96237       -0.11101
H          2.81220       -1.75530        0.64969
H          3.17025       -0.04599        0.45774
C          4.18376       -1.28705       -0.96958
H          0.37450       -2.18059        0.24640
H          1.25269       -2.90047       -1.11921
H         -0.18584       -1.91102       -1.42346
H          4.29016       -0.46151       -1.70191
C          4.03101       -2.58591       -1.76799
C          5.44906       -1.26288       -0.08200
H          5.35315       -2.04198        0.69777
H          5.43889       -0.30520        0.46384
C          6.81853       -1.41401       -0.80793
H          3.14285       -2.55586       -2.41736
H          3.93042       -3.45958       -1.10042
H          4.89740       -2.76174       -2.42343
H          6.64574       -1.19386       -1.87936
C          7.32342       -2.85973       -0.68700
C          7.87294       -0.38726       -0.30751
H          8.43791       -0.81793        0.54270
H          7.33312        0.47912        0.10896
C          8.87099        0.17645       -1.34251
H          8.27025        0.59786       -2.17254
C          9.82481       -0.86210       -1.94118
C          9.67921        1.33105       -0.72948
H         10.29540        0.97912        0.11674
H          9.02264        2.13078       -0.35056
H         10.35939        1.78017       -1.47131
H          6.57872       -3.57776       -1.06004
H          7.52093       -3.10801        0.37028
H          8.25459       -3.02579       -1.24572
H          9.29441       -1.64615       -2.50139
H         10.42078       -1.35555       -1.15330
H         10.53073       -0.38433       -2.63985
