72
POLY_PVME7.gamout	Energy:   -1351.3572238
C         -0.44474        0.39250        0.37384
C         -0.57399       -0.95691        1.09093
O          0.77148        0.54344       -0.33041
C          1.87128        0.91976        0.45456
H         -0.57490        1.22030        1.10045
H         -1.24325        0.47736       -0.37989
H          0.28767       -1.10551        1.76373
C         -0.65620       -2.14990        0.12150
H         -1.45933       -0.92839        1.75085
H          2.13183        0.16983        1.22853
H          1.69934        1.88836        0.96898
H          2.73647        1.03070       -0.21603
H          0.18955       -2.06150       -0.57780
O         -1.79242       -2.07366       -0.74091
C         -0.53590       -3.51006        0.83559
H         -1.39612       -3.66505        1.51004
H          0.34497       -3.47369        1.50015
C         -0.43325       -4.72362       -0.11181
O          0.69155       -4.64439       -0.98797
H         -1.28549       -4.67873       -0.80722
C         -0.50927       -6.06936        0.63831
H         -1.36178       -6.03128        1.33849
H          0.38031       -6.19832        1.27869
C         -0.63598       -7.29975       -0.28296
C         -3.07432       -2.11114       -0.16754
H         -3.29232       -1.23582        0.47581
H         -3.25957       -3.02331        0.43340
H         -3.79454       -2.10529       -0.99903
C          1.98349       -4.70384       -0.43978
H          2.20461       -5.66852        0.05813
H          2.19069       -3.89436        0.28737
H          2.68653       -4.58917       -1.27832
H          0.15170       -7.22912       -1.04858
O         -1.83241       -7.27952       -1.06333
C         -0.43953       -8.63330        0.46823
H         -1.27074       -8.79491        1.17627
H          0.46179       -8.55089        1.09980
C         -0.33254       -9.86782       -0.45376
O          0.78178       -9.78426       -1.34258
H         -1.19312       -9.84463       -1.14009
C         -0.38817      -11.20195        0.32126
H         -1.23154      -11.15504        1.03184
H          0.51021      -11.31256        0.95298
C         -0.51242      -12.45517       -0.57189
C         -3.07029       -7.36591       -0.40620
H         -3.26455       -6.51799        0.27988
H         -3.19552       -8.30062        0.17461
H         -3.84458       -7.34999       -1.18753
C          2.07986       -9.84568       -0.80949
H          2.31283      -10.81889       -0.33470
H          2.28950       -9.05093       -0.06677
H          2.77291       -9.70857       -1.65283
H          0.27662      -12.40151       -1.33789
O         -1.70937      -12.45621       -1.35263
C         -0.30744      -13.77330        0.20194
H         -1.13428      -13.93368        0.91563
H          0.59913      -13.67975        0.82447
C         -0.18223      -15.01397       -0.70330
O          0.97147      -14.94872       -1.54081
H         -1.01236      -14.97781       -1.42719
C         -0.28347      -16.32640        0.07877
H         -1.28912      -16.43066        0.51587
H          0.44297      -16.38363        0.90629
H         -0.11334      -17.18307       -0.59115
C         -2.94577      -12.55929       -0.69398
H         -3.13441      -11.73392        0.02031
H         -3.07243      -13.51294       -0.14462
H         -3.72256      -12.51414       -1.47172
C          2.22446      -15.20909       -0.96199
H          2.33908      -16.26033       -0.63359
H          2.45260      -14.55697       -0.09486
H          2.98008      -15.01138       -1.73703
