52
POLY_PDMS5.gamout	Energy:   -2222.7982204
C         -1.27672       -0.40857       -0.43669
Si        -0.82290        0.76276       -1.83508
O          0.70881        1.35607       -1.56331
H         -1.79096        1.90830       -1.85326
C         -0.86601       -0.09950       -3.50501
H         -1.25193        0.10635        0.53789
H         -0.57306       -1.25622       -0.38754
H         -2.29152       -0.81816       -0.57610
H         -1.87619       -0.48680       -3.72202
H         -0.16250       -0.94792       -3.53995
H         -0.59588        0.59623       -4.31692
Si         1.81541        2.56856       -1.29951
C          1.43127        3.40920        0.33265
C          1.80649        3.75437       -2.75214
O          3.31822        1.87782       -1.20400
H          0.82116        4.23506       -2.87284
H          2.04257        3.22523       -3.69027
H          2.55555        4.55228       -2.61787
H          1.44307        2.67845        1.15881
H          0.43392        3.87976        0.31546
H          2.16937        4.19355        0.56834
Si         4.33570        0.56086       -1.15328
C          4.28184       -0.33514       -2.79961
C          3.89131       -0.54720        0.29214
O          5.87012        1.14817       -0.91176
H          4.57224        0.34072       -3.62142
H          3.26781       -0.71052       -3.01600
H          4.97074       -1.19606       -2.81272
H          2.86247       -0.93291        0.20030
H          3.96523        0.00037        1.24670
H          4.57305       -1.41173        0.34980
Si         6.75759        2.54100       -0.66962
C          6.28769        3.34131        0.95889
C          6.54360        3.68679       -2.14067
O          8.35133        2.08212       -0.57183
Si         9.39016        0.81449       -0.89373
C          9.19373        0.24776       -2.67341
C          9.13214       -0.57730        0.33157
O         10.93767        1.40949       -0.66696
H         10.98162        2.37062       -0.60574
H          6.46485        2.65123        1.80097
H          5.22410        3.63191        0.97427
H          6.88920        4.24768        1.14011
H          5.48808        3.97815       -2.26677
H          6.87032        3.19402       -3.07181
H          7.13818        4.60792       -2.02376
H          8.12384       -1.01240        0.23638
H          9.25122       -0.21363        1.36589
H          9.86901       -1.38245        0.17510
H          9.36736        1.08187       -3.37469
H          8.18375       -0.15125       -2.86380
H          9.92416       -0.54212       -2.91447
