38
POLY_IPB3.gamout	Energy:    -472.2576022
C         -0.18100        0.17386        0.14773
C          1.08748        0.90433        0.61426
H         -1.05540        0.70939        0.56061
H         -0.27624        0.26038       -0.94862
C         -0.28446       -1.30784        0.53185
C         -0.27463       -1.57813        2.03777
H          1.08993        0.96153        1.71716
H          1.02473        1.95388        0.27542
C          2.43799        0.30592        0.16390
C          2.53694        0.11279       -1.36268
H          2.50748       -0.70358        0.60657
C          3.59464        1.14427        0.74943
H          3.44706        1.21080        1.84252
H          3.50331        2.18453        0.38850
C          5.03462        0.67025        0.46893
C          2.44454        1.38711       -2.20381
H          1.74473       -0.58333       -1.68513
H          3.48306       -0.40304       -1.59645
H          3.25564        2.09871       -1.97760
H          1.49094        1.91762       -2.04932
H          2.51359        1.14939       -3.27733
H          5.19399        0.70564       -0.62398
C          5.30548       -0.78744        0.89157
C          6.04870        1.64272        1.08820
H          5.92890        1.72429        2.18180
H          5.93247        2.65660        0.67211
H          7.08334        1.31848        0.88964
H          4.67795       -1.46241        0.28502
C          5.08569       -1.10579        2.37295
H          6.34749       -1.03368        0.62118
H          4.04197       -0.93334        2.68204
H          5.72719       -0.49391        3.02800
H          5.31823       -2.16149        2.58402
H         -1.07755       -1.02130        2.55123
H          0.67892       -1.28600        2.50751
H         -0.42612       -2.64831        2.25030
H          0.53093       -1.87862        0.05251
H         -1.21688       -1.71115        0.10059
