32
POLY_PECH3.gamout	Energy:   -1958.0728943
C         -0.05099       -0.09397        0.08564
C          1.10683        0.17556       -0.87197
O         -1.20077       -0.17820       -0.72022
O          2.27761        0.34413       -0.11267
C         -2.43485       -0.24833       -0.04468
C         -3.54669        0.01833       -1.05242
O         -4.75474       -0.19145       -0.36130
H         -5.49454        0.04504       -0.93506
C          3.50820        0.20258       -0.78923
C          4.59528        0.23034        0.27292
H          4.42823       -0.57919        0.99794
H          4.57394        1.19163        0.80708
H          5.59090        0.09865       -0.17825
H         -0.12851        0.77380        0.77716
C          0.18521       -1.30159        0.99070
H         -2.49607        0.50361        0.76527
H         -2.60833       -1.24814        0.39266
H         -3.41705       -0.71589       -1.87865
C         -3.44372        1.38498       -1.72369
H          0.86183        1.08210       -1.45575
H          1.19380       -0.67769       -1.57249
C          3.72025        1.23154       -1.90379
H          3.53013       -0.78160       -1.30962
H         -2.45615        1.48840       -2.19167
Cl        -3.65145        2.77144       -0.58119
H         -4.21831        1.49560       -2.49655
H          1.15482       -1.17970        1.48941
Cl         0.23164       -2.87312        0.09435
H         -0.60010       -1.39621        1.75071
Cl         3.64994        2.94470       -1.33271
H          2.95938        1.13622       -2.68933
H          4.70711        1.07974       -2.36361
