56
POLY_PCL3.gamout	Energy:   -1155.0703235
O          5.98253        0.33958        5.32810
C          4.94109        0.93665        4.71807
C          4.30767        0.00919        3.70069
C          3.11309        0.61940        2.96761
C          2.47218       -0.33425        1.95426
C          1.27241        0.27201        1.21855
C          0.64787       -0.68662        0.21969
O         -0.45654       -0.01668       -0.40392
C         -1.13504       -0.71188       -1.33699
C         -2.27341        0.10955       -1.90747
C         -3.08058       -0.62422       -2.97843
C         -4.23563        0.20150       -3.55570
C         -5.04270       -0.53798       -4.62991
C         -6.19840        0.28135       -5.20790
O          4.57729        2.05927        4.97071
H          5.10153       -0.30327        2.99871
H          4.02752       -0.91467        4.23804
H          2.36335        0.93885        3.71186
H          3.43636        1.54604        2.46277
H          3.23155       -0.65297        1.21530
H          2.15421       -1.25861        2.47251
H          0.49923        0.58234        1.94363
H          1.57617        1.18872        0.68279
H          1.36675       -0.99868       -0.55723
H          0.28429       -1.60965        0.70288
O         -0.85184       -1.84068       -1.65684
H         -2.90823        0.42043       -1.05842
H         -1.84005        1.04840       -2.29600
H         -2.39775       -0.93320       -3.78864
H         -3.46825       -1.56450       -2.55010
H         -4.91554        0.50706       -2.73746
H         -3.84095        1.14329       -3.98266
H         -4.36349       -0.84289       -5.44729
H         -5.43590       -1.47894       -4.20285
H         -6.74834       -0.28921       -5.97264
H         -6.92042        0.56950       -4.42464
H         -5.83799        1.21078       -5.68106
C          6.65984        1.09766        6.33952
H          5.93933        1.36905        7.13018
H          7.02247        2.04405        5.90324
C          7.79969        0.24791        6.87561
H          8.46195       -0.02247        6.03434
H          7.38629       -0.70118        7.25988
C          8.60282        0.95717        7.97404
H          7.92325        1.23141        8.80277
H          8.99278        1.91361        7.57787
C          9.76525        0.12285        8.52563
H         10.45362       -0.15240        7.70840
H          9.38856       -0.83369        8.92658
C         10.55794        0.83844        9.61940
H          9.91685        1.11443       10.47588
H         10.97670        1.79555        9.25953
C         11.70786        0.02268       10.16744
O         12.02434       -1.08500        9.81004
O         12.36962        0.68817       11.13794
H         13.08648        0.10083       11.43321
