56
POLY_PMP3.gamout	Energy:    -707.7867424
C          1.00661        1.40743       -0.36717
C         -0.37625        0.74119       -0.24695
C         -0.45490       -0.39176        0.78646
C         -1.86761       -0.94225        1.05883
H          1.28053        1.76231        0.64260
C          2.20053        0.58705       -0.92065
H          0.90434        2.32359       -0.97812
H         -1.09099        1.52959        0.05181
H         -0.72655        0.38986       -1.22995
H          0.20161       -1.23070        0.48833
H         -0.03929       -0.01637        1.73962
H         -2.51703       -0.07860        1.30203
C         -2.47053       -1.64857       -0.16096
C         -1.87070       -1.87678        2.27514
H         -1.49164       -1.36805        3.17664
H         -1.23441       -2.76265        2.10182
H         -2.88742       -2.23896        2.49728
H         -1.86144       -2.52317       -0.44990
H         -2.53568       -0.98320       -1.03570
H         -3.48859       -2.01125        0.05413
C          2.16087        0.41192       -2.45985
H          2.18465       -0.40526       -0.43811
C          3.51591        1.29705       -0.49787
H          3.42111        1.59364        0.56244
H          3.58127        2.24810       -1.05916
C          4.86388        0.55818       -0.65305
H          1.93977        1.40224       -2.89877
C          1.21241       -0.62626       -3.09705
H          3.17820        0.16238       -2.80942
H          0.17558       -0.39682       -2.79665
C          1.52486       -2.05911       -2.65583
C          1.26741       -0.52193       -4.62745
H          1.42410       -2.19509       -1.56884
H          2.55286       -2.34349       -2.93784
H          0.84105       -2.77718       -3.13556
H          2.28075       -0.74303       -5.00780
H          0.99781        0.48886       -4.97356
H          0.57341       -1.23491       -5.10110
H          4.94935        0.19918       -1.69429
C          5.00353       -0.65960        0.29675
C          6.01784        1.55352       -0.43582
H          6.01685        1.95099        0.59498
H          5.94583        2.41416       -1.12048
H          6.99509        1.07326       -0.60283
C          4.65885       -2.04449       -0.28486
H          4.38312       -0.48332        1.19403
H          6.04227       -0.70830        0.67122
C          5.69211       -2.50093       -1.32069
H          3.68383       -1.97139       -0.79482
C          4.52111       -3.09372        0.82339
H          6.69449       -2.58992       -0.86595
H          5.77151       -1.79650       -2.16361
H          5.42713       -3.48420       -1.74193
H          3.75000       -2.80947        1.55782
H          5.46992       -3.22223        1.37501
H          4.24336       -4.07633        0.40913
