52
POLY_PECH5.gamout	Energy:   -3262.6552512
C         -0.01502       -0.12015        0.10260
C          1.08711        0.14183       -0.91955
O         -1.21082       -0.14968       -0.63878
O          2.30503        0.32304       -0.23687
C         -2.40924       -0.27628        0.09017
C         -3.56189        0.15142       -0.81217
O         -4.73586       -0.13892       -0.09465
C         -5.94961        0.00344       -0.79549
C          3.48085        0.11592       -0.98344
C          4.62871        0.22836        0.01459
H          4.42753       -0.46630        0.85083
H          4.65044        1.25912        0.41664
O          5.82386       -0.09362       -0.65114
H         -0.02662        0.73241        0.81756
C          0.23578       -1.35708        0.96350
H         -2.40306        0.35994        0.99587
H         -2.58828       -1.32182        0.39921
H         -3.51241       -0.46735       -1.73477
C         -3.44987        1.59835       -1.29022
H          0.80806        1.04224       -1.49582
H          1.13703       -0.71669       -1.61646
C          3.63946        1.03689       -2.19369
H          3.49223       -0.91496       -1.40068
H         -2.46756        1.73974       -1.75902
Cl        -3.59273        2.81034        0.04576
H         -4.23242        1.84151       -2.01949
H          1.23107       -1.27273        1.41841
Cl         0.19626       -2.90675        0.03022
H         -0.51347       -1.44882        1.75920
Cl         3.57936        2.79876       -1.77731
H          2.85056        0.86303       -2.93563
H          4.61515        0.84247       -2.65629
H         -5.87059       -0.39182       -1.82612
H         -6.26830        1.05994       -0.85174
C         -7.02770       -0.77180       -0.05026
H         -7.01806       -0.40881        1.00136
C         -6.74431       -2.26922        0.04700
O         -8.23878       -0.46099       -0.69598
H         -8.95116       -0.98554       -0.30878
C          7.01330        0.43527       -0.10763
C          7.31065       -0.05045        1.31458
H          6.91099        1.54004       -0.01127
C          8.12179        0.12454       -1.09873
H          7.86529        0.54052       -2.08352
H          8.24455       -0.96402       -1.19817
H          9.07751        0.56104       -0.77060
Cl         7.44142       -1.84860        1.45939
H          6.52489        0.25887        2.01609
H          8.26357        0.37565        1.65900
H         -5.75648       -2.42645        0.49895
Cl        -6.75163       -3.11540       -1.55271
H         -7.50278       -2.76674        0.66819
