92
POLY_PMP5.gamout	Energy:   -1178.8427370
C          0.64272        1.40990       -0.10714
C         -0.68473        0.64977       -0.28325
C         -0.79352       -0.66129        0.50812
C         -2.18606       -1.31976        0.51331
H          0.74442        1.65166        0.96625
C          1.97173        0.75673       -0.56461
H          0.55161        2.38652       -0.61889
H         -1.49295        1.32347        0.05551
H         -0.88616        0.47229       -1.35227
H         -0.05773       -1.39682        0.13239
H         -0.50082       -0.45894        1.55494
H         -2.90982       -0.56098        0.87029
C         -2.63273       -1.76746       -0.88320
C         -2.22965       -2.49811        1.49475
H         -1.96124       -2.18293        2.51643
H         -1.52323       -3.29249        1.19558
H         -3.23509       -2.94737        1.53662
H         -1.93497       -2.51507       -1.30048
H         -2.68515       -0.92692       -1.59239
H         -3.63176       -2.23122       -0.84799
C          2.09485        0.63315       -2.10564
H          2.03418       -0.25068       -0.12133
C          3.14638        1.59823        0.00798
H          2.88550        1.90470        1.03584
H          3.18697        2.54106       -0.56711
C          4.56877        0.96229        0.03985
H          1.68617        1.55807       -2.55310
C          1.45400       -0.58197       -2.80892
H          3.16640        0.63016       -2.37512
H          0.38926       -0.63687       -2.52317
C          2.11082       -1.90604       -2.40612
C          1.49979       -0.40647       -4.33309
H          2.00711       -2.11242       -1.33067
H          3.18934       -1.90143       -2.64286
H          1.65735       -2.75259       -2.94578
H          2.53950       -0.35700       -4.70289
H          0.99127        0.51898       -4.64761
H          1.00767       -1.24911       -4.84467
H          4.61979        0.17770       -0.73515
C          4.86893        0.31867        1.41510
C          5.63894        2.03946       -0.29729
H          5.63158        2.77144        0.53158
H          5.29091        2.60457       -1.17899
C          7.10679        1.58597       -0.55596
C          4.05323       -0.91167        1.85379
H          4.74940        1.10715        2.18129
H          5.93552        0.03242        1.45454
C          4.30938       -2.12990        0.96302
H          2.97828       -0.66048        1.79344
C          4.34868       -1.25653        3.31982
H          5.37295       -2.42348        0.99585
H          4.05170       -1.94088       -0.08854
H          3.71638       -2.99661        1.29662
H          4.12516       -0.40866        3.98703
H          5.41149       -1.52168        3.46093
H          3.74493       -2.11479        3.65561
C          7.39330        1.42131       -2.06645
H          7.26410        0.61881       -0.05231
C          8.09655        2.61254        0.06716
H          7.77720        2.81490        1.10534
H          7.95533        3.56988       -0.46864
C          9.61462        2.30933        0.09477
H          7.10385        2.36478       -2.56573
C          6.74750        0.24819       -2.82510
H          8.48374        1.34069       -2.21870
H          5.65652        0.26922       -2.64989
C          7.28121       -1.10662       -2.35445
C          6.96629        0.40473       -4.33483
H          7.10520       -1.27185       -1.28041
H          8.36776       -1.18205       -2.52965
H          6.79960       -1.93509       -2.89685
H          8.04260        0.40612       -4.58209
H          6.53800        1.34842       -4.70799
H          6.49779       -0.42077       -4.89375
H          9.92096        1.91498       -0.88989
C         10.04156        1.29729        1.18721
C         10.38339        3.63008        0.29580
H         10.13235        4.09849        1.26444
H         10.14447        4.35762       -0.49561
H         11.47208        3.46516        0.28149
C          9.89420       -0.21379        0.91857
H          9.49967        1.54839        2.11689
H         11.10866        1.47719        1.41507
C         10.76069       -0.67400       -0.25552
H          8.84065       -0.43517        0.67415
C         10.24084       -1.02395        2.17555
H          9.60584       -0.73808        3.02945
H         11.29228       -0.86799        2.47566
H         10.10204       -2.10298        2.00215
H         11.82499       -0.44919       -0.06794
H         10.48235       -0.18200       -1.19944
H         10.66925       -1.75983       -0.41322
