86
POLY_PIB7.gamout	Energy:   -1100.2769709
C          5.35266       -3.91914       -0.31497
C          4.16866       -4.11742       -1.27931
C          3.39664       -5.36610       -0.80322
C          3.14965       -2.93263       -1.21338
C          3.38875       -1.48285       -1.75470
C          2.23349       -0.55080       -1.22819
C          2.12308        0.11704        0.19645
C          0.61262        0.53810        0.28562
C         -0.03950        1.52954        1.31264
C         -1.57810        1.38404        1.01895
C         -2.76330        1.86995        1.93052
C         -4.01342        1.76045        0.98798
C         -5.44898        2.33101        1.26095
C         -6.34235        1.66235        0.15954
C         -7.71038        2.24900       -0.26347
C         -8.16404        1.57226       -1.56812
C         -2.91805        0.89724        3.11515
C         -2.57139        3.28992        2.48111
C          0.34144        1.20377        2.76271
C          0.38322        2.97612        1.00124
C          2.46330       -0.86029        1.33339
C          3.07842        1.31659        0.28064
C          4.79064       -0.92403       -1.46908
C          3.22200       -1.49071       -3.29083
C          4.71425       -4.42781       -2.68260
H          5.93990       -4.84880       -0.23859
H          6.03781       -3.12708       -0.64343
H          5.00252       -3.66540        0.69877
H          2.98990       -5.22597        0.21171
H          2.55198       -5.59805       -1.47217
H          4.05601       -6.24905       -0.77760
H          2.22927       -3.28543       -1.71080
H          2.88059       -2.85654       -0.15208
H          2.16191        0.28675       -1.94283
H          1.30648       -1.12908       -1.38219
H          0.33620        0.93108       -0.70792
H          0.06144       -0.41229        0.37300
H         -1.72258        1.85382        0.03289
H         -1.77489        0.31301        0.84975
H         -3.71821        2.20026        0.02144
H         -4.13364        0.68289        0.78106
C         -5.98402        1.98555        2.65838
C         -5.47189        3.85601        1.07884
H         -5.73543        1.63525       -0.76096
H         -6.49129        0.60339        0.44204
C         -8.83573        2.13466        0.77334
H         -7.57188        3.32086       -0.49124
H         -7.42508        1.70422       -2.37463
H         -8.31077        0.48696       -1.42552
H         -9.12016        1.99224       -1.91988
H         -2.02523        0.89262        3.75203
H         -3.76928        1.16577        3.75240
H         -3.07897       -0.13340        2.75988
H         -2.50046        4.04412        1.68267
H         -3.40917        3.57003        3.13543
H         -1.66128        3.36102        3.09198
H          1.42142        1.33214        2.92216
H         -0.16171        1.87876        3.46830
H          0.08068        0.17167        3.04078
H          0.18809        3.22203       -0.05484
H         -0.16857        3.69635        1.61729
H          1.45068        3.14320        1.18921
H          3.48121       -1.26147        1.23147
H          2.41269       -0.36472        2.31153
H          1.76344       -1.70977        1.35832
H          2.84120        2.08084       -0.47580
H          3.03630        1.79562        1.26900
H          4.11871        1.00793        0.12227
H          5.55753       -1.50893       -1.99681
H          4.87112        0.10998       -1.83856
H          5.05012       -0.92268       -0.40165
H          2.21479       -1.82788       -3.58404
H          3.36702       -0.48029       -3.70570
H          3.94784       -2.15453       -3.77963
H          5.32320       -5.34597       -2.65069
H          3.90199       -4.59709       -3.40769
H          5.35811       -3.62735       -3.07436
H         -8.66410        2.75337        1.66562
H         -8.96960        1.09098        1.10838
H         -9.79107        2.46404        0.33427
H         -5.40150        2.47259        3.45330
H         -5.96997        0.90025        2.84297
H         -7.02150        2.32594        2.77298
H         -5.09177        4.14582        0.08560
H         -4.85962        4.36716        1.83130
H         -6.49320        4.25445        1.17234
