11
PROPANE.gamout	Energy:    -118.9629174
C          3.37067        1.64665        1.32338
C          2.00515        1.07671        0.93535
C          0.94801        1.24342        2.02852
H          3.76846        1.15338        2.22697
H          3.30847        2.72735        1.53843
H          4.11123        1.51110        0.51841
H          1.65373        1.56388        0.00778
H          2.11253        0.00488        0.68898
H         -0.02491        0.82809        1.71968
H          0.79114        2.30740        2.27644
H          1.24810        0.72973        2.95817
