22
PROPYL_ISOPROPYL_KETONE.gamout	Energy:    -349.9194201
C          1.79284        1.52010       -0.05156
C          3.02728        0.71316        0.33223
C          3.05137       -0.78752        0.01151
O          3.98729        1.23953        0.85410
C          1.97582        3.03173        0.06802
C          1.73870       -1.51968        0.30889
C          3.49665       -0.98748       -1.44831
C          0.71453        3.82089       -0.28260
H          1.48689        1.23334       -1.07488
H          0.96201        1.17860        0.59539
H          3.84567       -1.18708        0.66268
H          2.30185        3.26946        1.09369
H          2.81000        3.34468       -0.58309
H          1.86263       -2.60161        0.14269
H          1.42117       -1.37983        1.35443
H          0.91689       -1.18210       -0.34377
H          3.62374       -2.05982       -1.66623
H          4.45762       -0.48687       -1.64089
H          2.75397       -0.59117       -2.16129
H          0.88485        4.90478       -0.18683
H          0.38673        3.62884       -1.31884
H         -0.12742        3.55926        0.38129
