14
PROPYL_FORMATE.gamout	Energy:    -307.2846931
C          1.56886       -4.91730       -5.90155
O          1.14972       -3.80051       -5.97760
O          2.87713       -5.21352       -5.92851
C          3.25493       -6.59196       -5.82756
C          4.76983       -6.67157       -5.87900
H          2.80409       -7.16448       -6.65939
H          2.87196       -7.01543       -4.88059
C          5.28566       -8.10653       -5.78173
H          5.17673       -6.05639       -5.05863
H          5.10900       -6.20167       -6.81779
H          4.97978       -8.58699       -4.83693
H          6.38516       -8.13137       -5.82283
H          4.91007       -8.73050       -6.61026
H          0.91744       -5.82190       -5.80101
