17
PROTOCATECHUIC_ACID.gamout	Energy:    -570.5511616
O         -3.66851        2.48051       -0.00034
O         -5.90889        1.09403        0.22211
O         -0.05092       -0.85567       -1.06530
O         -1.05477       -2.85897       -1.14015
C         -2.38273       -0.92530       -0.65998
C         -2.39972        0.47051       -0.48024
C         -3.58358        1.13946       -0.18509
C         -3.57139       -1.65075       -0.54075
C         -4.78569        0.39979       -0.06522
C         -4.76083       -0.98657       -0.24531
C         -1.13548       -1.66233       -0.97471
H         -1.46960        1.03567       -0.57424
H         -3.54774       -2.73183       -0.68192
H         -5.69557       -1.54809       -0.15030
H         -2.79171        2.87241       -0.10646
H         -6.65604        0.48331        0.27742
H          0.69981       -1.43735       -1.27203
