32
QUERCETIN.gamout	Energy:   -1102.8166219
C          1.17944       -1.60051        0.00504
O          1.18198       -2.85592        0.03503
C         -0.00332       -0.78739        0.01871
C          2.45576       -0.90160       -0.04698
C          0.12610        0.61257       -0.01898
C         -1.30963       -1.36440        0.06982
O          3.53329       -1.71132       -0.05715
C          2.51442        0.47179       -0.08118
O          1.34684        1.18837       -0.06640
C         -0.98901        1.44934       -0.00821
O         -1.45176       -2.68866        0.10611
C         -2.42558       -0.53407        0.08127
C          3.69569        1.33168       -0.13314
C         -2.26076        0.86057        0.04222
C          3.52959        2.73532       -0.16067
C          5.00602        0.81500       -0.15691
O         -3.38728        1.60549        0.05586
C          4.62928        3.57763       -0.20963
C          6.10696        1.66716       -0.20624
O          4.56298        4.94555       -0.23886
C          5.93887        3.05115       -0.23321
O          7.00412        3.87835       -0.28109
H          3.14520       -2.61348       -0.02478
H         -0.85605        2.53161       -0.03835
H         -0.54029       -3.08249        0.08974
H         -3.42585       -0.96311        0.12017
H          2.52693        3.16455       -0.14323
H          5.16341       -0.26033       -0.13655
H         -3.15794        2.54376        0.02624
H          7.12164        1.26638       -0.22467
H          3.64378        5.23988       -0.22057
H          6.66970        4.78917       -0.29273
