15
SALICYLALDEHYDE.gamout	Energy:    -420.2525368
C          6.32866        1.87188       -0.75707
C          6.84428        0.61933       -0.44161
C          4.94197        2.06953       -0.72079
C          4.08518        1.02603       -0.37303
C          4.60595       -0.23670       -0.05478
C          6.00172       -0.44694       -0.08857
O          3.80701       -1.27599        0.28845
C          6.59102       -1.76627        0.24043
O          7.78195       -1.99731        0.22566
H          6.99439        2.69299       -1.03007
H          7.91846        0.42115       -0.45748
H          4.52088        3.04770       -0.96590
H          3.00278        1.18458       -0.34577
H          2.88224       -0.99551        0.27167
H          5.85613       -2.55998        0.51095
