3
SCN-1.gamout	Energy:    -490.8017782
C         -1.56626        0.92531        0.00000
N         -0.38455        0.92519        0.00000
S         -3.23179        0.92542        0.00000
