27
SEC-BUTYL_TERT-BUTYL_ETHER.gamout	Energy:    -390.3647679
O         -0.01846       -0.13711       -0.41805
C          1.34956       -0.20802        0.02089
C         -1.00287        0.68452        0.19128
C         -2.35535        0.13808       -0.27769
C          1.52627        0.04674        1.52313
C          1.76485       -1.64586       -0.30672
C          2.20684        0.77189       -0.79522
C         -0.85716        2.17100       -0.15102
C         -2.60226       -1.32123        0.09832
H         -0.95843        0.57536        1.29327
H         -3.14880        0.78057        0.14235
H         -2.40537        0.25508       -1.37531
H          0.92154       -0.65074        2.12380
H          2.58225       -0.10561        1.79591
H          1.26046        1.07557        1.80893
H          1.58213       -1.85421       -1.37172
H          1.16867       -2.35770        0.28405
H          2.83213       -1.81823       -0.09428
H          1.96185        1.81916       -0.56742
H          3.27916        0.62408       -0.58744
H          2.03715        0.60794       -1.87012
H         -0.87316        2.32413       -1.24278
H         -1.68608        2.74881        0.29031
H          0.08046        2.59090        0.24022
H         -2.58430       -1.46388        1.19270
H         -1.82770       -1.96798       -0.33916
H         -3.58339       -1.66383       -0.26597
