14
SERINE.gamout	Energy:    -398.4473204
C          2.99024        1.91438       -0.06063
C          1.66275        1.24268       -0.41819
C          0.50619        1.97632        0.25214
N          1.65478       -0.18282       -0.10685
O          3.14597        2.83166        0.70868
O          4.02670        1.32343       -0.69521
O         -0.70046        1.52353       -0.31264
H          0.65708        3.06275        0.10677
H          0.55665        1.79694        1.34698
H          2.42060       -0.65338       -0.58735
H          1.79600       -0.32801        0.89425
H          4.83391        1.77303       -0.39053
H         -1.42728        1.97780        0.12964
H          1.53130        1.34590       -1.51039
