5
SILANE.gamout	Energy:    -291.7432054
Si        -0.45181        0.96959       -0.00150
H          1.03368        0.84496       -0.00262
H         -0.88836        1.71980       -1.21345
H         -0.88793        1.70305        1.22082
H         -1.06446       -0.38937       -0.01074
