92
SQUALANE.gamout	Energy:   -1178.8689529
C         -2.10315        2.50720        1.36894
C          2.10163       -2.50969        1.37234
C         -1.68692        1.02682        1.51531
C          1.68479       -1.02971        1.51652
C         -3.62781        2.62101        1.14961
C          3.62612       -2.62187        1.15101
C         -0.17632        0.74638        1.50467
C          0.17414       -0.75024        1.50648
C         -4.15622        4.02231        0.80073
C          4.15681       -4.02302        0.80430
C         -6.21731        5.41227       -0.00587
C          6.21926       -5.41099       -0.00336
C         -5.65927        4.05348        0.47336
C          5.65949       -4.05230        0.47438
C         -7.67121        5.25961       -0.50504
C          7.67212       -5.25721       -0.50566
C         -1.62956        3.35312        2.55621
C          1.63034       -3.35379        2.56184
C         -8.27088        6.48444       -1.21945
C          8.27178       -6.48282       -1.21888
C         -6.09503        6.49529        1.07152
C          6.10084       -6.49211        1.07641
C         -9.66142        6.23070       -1.82373
C          9.66082       -6.22938       -1.82685
C        -10.26676        7.39851       -2.62681
C         10.26518       -7.39899       -2.62827
C        -11.56040        6.96599       -3.32493
C        -10.51682        8.63983       -1.76449
C         11.55696       -6.96740       -3.33031
C         10.51838       -8.63778       -1.76320
H         -1.61050        2.89830        0.45636
H          1.60814       -2.90299        0.46117
H         -2.15239        0.45367        0.69291
H         -2.12797        0.62044        2.44617
H          2.14923       -0.45787        0.69264
H          2.12626       -0.62134        2.44631
H         -3.90778        1.92704        0.33657
H         -4.14957        2.24693        2.05231
H          3.90387       -1.92940        0.33587
H          4.14846       -2.24486        2.05214
H          0.27351        1.22446        0.61380
H          0.30510        1.22545        2.37589
H         -0.27624       -1.23082        0.61723
H         -0.30643       -1.22736        2.37927
H         -3.59394        4.41302       -0.06914
H         -3.94350        4.71423        1.63243
H          3.59386       -4.41669       -0.06381
H          3.94660       -4.71357        1.63780
H         -5.60521        5.72779       -0.87458
H          5.60604       -5.72907       -0.87038
H         -5.85943        3.30342       -0.31334
H         -6.23591        3.71732        1.35745
H          5.85692       -3.30349       -0.31420
H          6.23706       -3.71334        1.35684
H         -7.70593        4.39999       -1.19869
H         -8.32029        4.98095        0.34772
H          7.70441       -4.39892       -1.20107
H          8.32255       -4.97601        0.34524
H         -2.11131        3.02280        3.49374
H         -1.86549        4.41877        2.41717
H         -0.54083        3.28354        2.69797
H          2.11302       -3.02128        3.49811
H          1.86701       -4.41948        2.42445
H          0.54174       -3.28479        2.70476
H         -7.58204        6.80388       -2.02441
H         -8.32607        7.33287       -0.51699
H          7.58144       -6.80460       -2.02163
H          8.32941       -7.32959       -0.51467
H         -6.67656        6.22401        1.97069
H         -6.46582        7.46840        0.71642
H         -5.05054        6.64494        1.38276
H          6.68398       -6.21791        1.97366
H          6.47228       -7.46537        0.72255
H          5.05732       -6.64291        1.39023
H         -9.60418        5.34987       -2.48870
H        -10.36868        5.95311       -1.01796
H          9.60149       -5.35023       -2.49391
H         10.36971       -5.94923       -1.02342
H         -9.53863        7.67625       -3.41412
H          9.53549       -7.67939       -3.41318
H        -11.40058        6.08821       -3.97156
H        -11.96268        7.77509       -3.95483
H        -12.34030        6.69879       -2.58979
H        -10.96664        9.45128       -2.35900
H        -11.20944        8.41215       -0.93509
H         -9.58747        9.03380       -1.32627
H         11.39509       -6.09158       -3.97911
H         11.95856       -7.77801       -3.95869
H         12.33825       -6.69739       -2.59770
H         10.96726       -9.45071       -2.35645
H         11.21302       -8.40725       -0.93630
H          9.59040       -9.03108       -1.32155
