11
SUCCINIC_ANHYDRIDE.gamout	Energy:    -380.0495352
C          0.91862        1.05372        1.11305
C          0.67637        1.50623        2.55242
C          2.41989        1.20658        0.90760
C          2.05955        1.85766        3.08429
O          2.99290        1.66383        2.08113
O          2.37076        2.24365        4.16596
O          3.06875        0.98755       -0.06542
H          0.64880        0.00368        0.92162
H          0.39773        1.65904        0.35581
H          0.23734        0.73285        3.20070
H          0.03481        2.39659        2.63940
