12
SUCCINIMIDE.gamout	Energy:    -360.2133488
O          2.29149       -0.64382        0.00228
O         -2.29153       -0.64369       -0.00228
N         -0.00003       -0.92991       -0.00000
C          0.76748        1.28760        0.00078
C         -0.76744        1.28767       -0.00077
C          1.17715       -0.18597        0.00117
C         -1.17714       -0.18588       -0.00117
H          1.21244        1.77062        0.88457
H          1.21419        1.77066       -0.88211
H         -1.21230        1.77071       -0.88458
H         -1.21405        1.77073        0.88215
H         -0.00009       -1.94675       -0.00001
