3
SULFUR_DIOXIDE.gamout	Energy:    -548.2349733
S          0.91279       -0.08002        0.00000
O          2.15419        0.69617        0.00000
O         -0.36278        0.63864        0.00000
