69
TANNIC_ACID.gamout	Energy:   -2394.3862339
O         -0.37702       -0.84285        0.15454
O          3.65562       -0.69079       -0.20557
O          2.39514       -3.19993       -0.24373
O          1.78932        1.44658       -1.57779
O         -0.67402        1.35753       -0.29947
O         -1.84356       -3.14814        0.08363
O          4.40806        0.71669       -1.79985
O         -2.52101        0.84376       -1.49130
O         -2.70157       -4.04580        1.96868
O          9.45185        0.79239       -0.73566
O          7.80554       -2.82638        1.71623
O          9.81147       -1.29442        0.90801
O         -5.67978        4.61219        0.18921
O         -1.38797        6.04650        1.35352
O         -4.00776        6.43935        1.21740
O         -7.75697       -2.89113        1.09016
O         -5.25554        0.00377       -1.63381
O         -7.60683       -0.83987       -0.64556
C          2.32065       -0.80312       -0.72831
C          1.71981       -1.99288        0.03861
C          0.21084       -2.07415       -0.22040
C          1.50132        0.49903       -0.59150
C          0.00269        0.19508       -0.70301
C         -0.50258       -3.17997        0.53638
C          4.62928       -0.06119       -0.88555
C         -1.92326        1.60376       -0.75019
C          5.97582       -0.40630       -0.38980
C         -2.85515       -3.40957        0.95148
C         -2.44521        2.87817       -0.22331
C         -4.11545       -2.78999        0.48273
C          6.17874       -1.49936        0.46764
C          7.06310        0.37290       -0.81292
C         -1.58230        3.83566        0.33295
C         -3.82510        3.12361       -0.29034
C          8.35525        0.08352       -0.37857
C          7.46968       -1.78894        0.89166
C         -4.06034       -1.73591       -0.43463
C         -5.34819       -3.18937        1.01929
C          8.56688       -1.00723        0.48626
C         -4.35949        4.31362        0.20020
C         -2.11783        5.02830        0.80369
C         -3.50011        5.28444        0.74919
C         -6.52590       -2.55023        0.62906
C         -5.22756       -1.07084       -0.78929
C         -6.47223       -1.47643       -0.28177
H          2.38086       -1.05118       -1.80543
H          1.87079       -1.81093        1.11478
H          0.04112       -2.24622       -1.30567
H          1.66696        0.88538        0.43628
H         -0.26074       -0.05182       -1.74846
H         -0.45516       -3.01978        1.62554
H         -0.02954       -4.14912        0.31229
H          2.31079       -3.39218       -1.18884
H          2.74420        1.39930       -1.78541
H          5.33455       -2.12093        0.76913
H          6.87835        1.20941       -1.49029
H         -0.50928        3.64483        0.37345
H         -4.48561        2.36015       -0.70611
H         -3.10604       -1.40402       -0.83256
H         -5.37466       -4.00208        1.74951
H          9.19215        1.50954       -1.32804
H          7.02125       -3.32779        1.97237
H          9.74931       -2.07153        1.48623
H         -6.17422        3.87105       -0.18409
H         -0.45004        5.81952        1.37430
H         -3.26537        6.96581        1.55417
H         -7.66688       -3.62328        1.71297
H         -4.34095        0.30703       -1.80207
H         -7.34725       -0.15792       -1.28497
