18
TEREPHTHALIC_ACID.gamout	Energy:    -608.6391884
O          1.48819        4.23255        0.16930
C          2.55450        4.90106       -0.31739
O          2.48438        6.04946       -0.68659
C          3.79828        4.07551       -0.34462
C          4.97070        4.67123       -0.83237
C          3.82046        2.74484        0.09733
C          6.15452        3.94399       -0.87825
C          5.00719        2.01587        0.05155
C          6.17851        2.61305       -0.43644
C          7.47466        1.87519       -0.50534
O          7.38278        0.60692       -0.05431
O          8.50994        2.34315       -0.91712
H          0.73917        4.85258        0.14444
H          4.92781        5.70757       -1.17052
H          2.90513        2.28919        0.47491
H          7.07795        4.38705       -1.25351
H          5.03451        0.98095        0.39308
H          8.27032        0.21860       -0.14074
