16
TERT-BUTYLAMINE.gamout	Energy:    -213.4968360
C          2.00144        3.01065        0.69337
C          2.15180        2.04738        1.87917
C          0.93997        2.18747        2.82146
C          3.44401        2.35820        2.64426
N          2.28210        0.68871        1.32868
H          2.85682        2.90771        0.00897
H          1.94115        4.05754        1.03103
H          1.08257        2.78949        0.12440
H          0.84863        3.20828        3.22980
H          0.00171        1.95527        2.28972
H          1.02308        1.49314        3.67504
H          4.31659        2.24931        1.98288
H          3.43333        3.38182        3.05135
H          3.57466        1.66449        3.49253
H          2.36364        0.01305        2.09139
H          1.42699        0.43493        0.83004
