17
TETRAMETHYLAMMONIUM+1.gamout	Energy:    -213.8492165
N         -1.74360        0.07447        0.12746
C         -0.66355       -0.21284        1.13051
H         -0.93318       -1.11353        1.69540
H         -0.56937        0.64161        1.81187
H          0.28368       -0.37377        0.60074
C         -3.04743        0.28996        0.84031
H         -3.82787        0.50640        0.10029
H         -2.94139        1.13618        1.52990
H         -3.30364       -0.61826        1.39908
C         -1.39045        1.30781       -0.65248
H         -0.43763        1.14204       -1.16987
H         -1.29798        2.15414        0.03909
H         -2.18429        1.50618       -1.38252
C         -1.87208       -1.09027       -0.81014
H         -2.66788       -0.88215       -1.53604
H         -2.12032       -1.98881       -0.23207
H         -0.91851       -1.23425       -1.33232
