22
TETRAMETHYLGUANIDINIUM+1.gamout	Energy:    -362.5075883
N          1.10645       -0.29365        0.40011
N         -1.07869        0.10239       -0.38047
N         -0.15887       -2.02747       -0.48561
C         -0.04290       -0.72746       -0.15246
C          2.02385       -1.21450        1.07399
C          1.63650        1.05237        0.16376
C         -1.38229        1.24549        0.48574
C         -2.10146       -0.20819       -1.38078
H          1.47249       -2.05946        1.50604
H          2.80632       -1.59187        0.39170
H          2.52189       -0.67863        1.89506
H          2.67002        0.96215       -0.20667
H          1.04731        1.56882       -0.60148
H          1.65142        1.65645        1.08539
H         -0.75039        1.22762        1.38032
H         -1.24873        2.20479       -0.04079
H         -2.43325        1.17210        0.80878
H         -2.44592        0.73202       -1.83495
H         -1.68071       -0.83576       -2.17662
H         -2.97794       -0.71108       -0.93537
H          0.65783       -2.61200       -0.61643
H         -1.06603       -2.45964       -0.61265
