5
TETRACHLOROSILANE.gamout	Energy:   -2129.5734115
Si        -5.25935        4.00818        2.41192
Cl        -6.38279        4.64317        4.00726
Cl        -5.33234        5.41639        0.92119
Cl        -3.31364        3.74375        3.00784
Cl        -6.00839        2.23074        1.71119
