43
TETRADECANOATE-1.gamout	Energy:    -699.2952859
O         -8.36918       -0.53145        0.04119
O         -7.21153        1.41623        0.07180
C          1.76222       -0.46060       -0.01317
C          0.45192        0.33737        0.00721
C          3.02821        0.40635        0.00066
C         -0.81502       -0.52906       -0.00938
C          4.33776       -0.39263       -0.01494
C         -2.12834        0.26510        0.01903
C          5.60330        0.47512       -0.00323
C         -3.39840       -0.59985       -0.00075
C          6.91368       -0.32171       -0.01723
C         -4.71190        0.19406        0.03629
C          8.17568        0.54830       -0.00770
C         -5.98341       -0.65325        0.01577
C          9.47800       -0.25387       -0.02236
C         -7.33739        0.17054        0.04784
H          1.78354       -1.14724        0.85472
H          1.77847       -1.11148       -0.90826
H          0.43717        0.98644        0.90367
H          0.43299        1.02630       -0.85894
H          3.01190        1.05940        0.89406
H          3.00946        1.09068       -0.86897
H         -0.79886       -1.17482       -0.90863
H         -0.78995       -1.22201        0.85380
H          4.35764       -1.07563        0.85571
H          4.35428       -1.04680       -0.90755
H         -2.15074        0.95998       -0.84263
H         -2.14215        0.90932        0.91920
H          5.58383        1.15722       -0.87459
H          5.58657        1.13024        0.88866
H         -3.36675       -1.30079        0.85730
H         -3.38103       -1.24144       -0.90420
H          6.93281       -0.97784       -0.90853
H          6.93678       -1.00271        0.85509
H         -4.75385        0.90254       -0.81018
H         -4.73892        0.83867        0.93341
H          8.15436        1.22914       -0.87898
H          8.15886        1.20389        0.88289
H         -6.01121       -1.29718       -0.88521
H         -6.00384       -1.35445        0.87311
H         10.35869        0.40820       -0.01587
H          9.54897       -0.89186       -0.92006
H          9.55415       -0.91591        0.85733
