6
TETRACHLOROETHYLENE.gamout	Energy:   -1916.0729641
C          2.40116        2.23394        1.03708
C          1.31051        1.44003        0.94957
Cl        -0.05282        1.85126       -0.03139
Cl         1.18806       -0.05351        1.81156
Cl         3.76414        1.82237        2.01812
Cl         2.52241        3.72698        0.17463
