13
TETRAHYDROFURAN.gamout	Energy:    -232.1315965
C          0.71240        2.12424        0.98207
C          1.87827        2.99736        1.46045
C          3.08473        2.20849        0.93993
O          2.69632        0.83923        0.94531
C          1.29420        0.71759        1.15640
H         -0.21804        2.27866        1.54931
H          0.49749        2.32113       -0.08215
H          1.84350        4.02929        1.07954
H          1.89532        3.04342        2.56277
H          3.34960        2.52198       -0.09042
H          3.98568        2.33437        1.56499
H          0.88096       -0.01223        0.43908
H          1.09750        0.32846        2.17638
