21
THEOBROMINE.gamout	Energy:    -640.2560442
N          1.32499        0.03170       -0.44986
C          2.03930       -0.48058       -1.61248
C         -0.05177        0.00265       -0.36176
C          2.06953        0.56406        0.59787
C         -0.73465        0.48953        0.74511
N         -0.90660       -0.48196       -1.29434
O          3.28265        0.61658        0.57738
N          1.32418        1.03814        1.68320
C         -0.06760        1.06273        1.88698
N         -2.07474        0.28556        0.46173
C         -2.10840       -0.29469       -0.76441
O         -0.56289        1.51674        2.90447
C         -3.20155        0.62634        1.31089
H          1.29887       -0.85526       -2.32843
H          2.64024        0.31779       -2.07312
H          2.72044       -1.29154       -1.31425
H          1.89105        1.42163        2.43474
H         -3.05131       -0.56886       -1.24095
H         -4.12674        0.33388        0.79738
H         -3.13465        0.09812        2.27319
H         -3.22194        1.70687        1.51443
