21
THEOPHYLLINE.gamout	Energy:    -640.2522359
O         -3.27605        2.59001       -1.58708
O         -0.68727       -1.20890       -1.93107
N         -1.37230       -0.62149        0.15952
N         -1.97278        0.67811       -1.75855
N         -3.31356        2.01454        1.42210
N         -2.24990        0.24575        2.27633
C         -2.07885        0.27308        0.92853
C         -2.72397        1.35647        0.36041
C         -2.72123        1.64744       -1.04609
C         -1.30233       -0.43708       -1.22003
C         -0.68432       -1.76990        0.73543
C         -1.86696        0.82409       -3.20825
C         -2.99764        1.30834        2.53698
H         -3.86975        2.85997        1.35527
H         -1.07697       -2.70454        0.30787
H          0.39214       -1.72047        0.51369
H         -0.84636       -1.75507        1.82002
H         -2.42843        1.72167       -3.48857
H         -0.81297        0.92220       -3.50693
H         -2.28142       -0.06074       -3.71328
H         -3.33665        1.60645        3.53005
