10
TRANS-CROTONONITRILE.gamout	Energy:    -209.8658276
N          2.41875       -0.21000       -0.00005
C         -2.54199       -0.00540       -0.00004
C         -1.09652       -0.38001        0.00004
C         -0.07558        0.49706        0.00002
C          1.29794        0.09685        0.00001
H         -3.05393       -0.42618        0.88336
H         -2.68941        1.08516       -0.00011
H         -3.05389       -0.42629       -0.88341
H         -0.86106       -1.45108        0.00010
H         -0.26230        1.57708       -0.00008
