18
TRANS-3-HEXENE.gamout	Energy:    -235.5062551
C          1.20664        2.00022        1.60277
C          2.29680        1.35834        2.43432
C          3.70804        1.88218        2.27345
C          2.02126        0.35935        3.28460
C          0.94715        3.47566        1.94165
C          4.30865        1.64376        0.88021
H          1.46418        1.92149        0.53052
H          0.27507        1.42705        1.73685
H          3.72738        2.96642        2.48891
H          4.35101        1.40802        3.03245
H          1.00549       -0.03070        3.39906
H          2.80214       -0.10305        3.89569
H          0.67475        3.59492        3.00300
H          1.83084        4.10565        1.75091
H          0.12122        3.87595        1.33272
H          5.34591        2.01153        0.83443
H          4.31841        0.56970        0.63282
H          3.74190        2.16265        0.09023
