18
TRANS-1,2-DIMETHYLCYCLOBUTANE.gamout	Energy:    -235.5021352
C          0.61972        1.53885       -0.27028
C          0.56725        0.00871       -0.02149
C          2.12249        0.00882        0.02141
C          2.07031        1.53883        0.27042
C         -0.15155       -0.88653       -1.01588
C          2.84118       -0.88624        1.01581
H         -0.12376        2.16885        0.24254
H          0.58727        1.76823       -1.34860
H          0.18336       -0.18130        0.99791
H          2.50637       -0.18116       -0.99801
H          2.81388        2.16871       -0.24235
H          2.10279        1.76811        1.34876
H         -1.23890       -0.70239       -1.00996
H          0.00529       -1.95356       -0.78452
H          0.21088       -0.71065       -2.04356
H          3.92849       -0.70201        1.00985
H          2.68438       -1.95327        0.78448
H          2.47871       -0.71031        2.04346
