13
TRANS-1,3-PENTADIENE.gamout	Energy:    -195.0340663
C          2.08706        1.77096        0.90820
C          3.41070        1.16278        0.93076
C          4.56434        1.85497        0.88377
C          0.93073        1.08838        0.95375
C          5.93843        1.25879        0.90555
H          2.05874        2.86673        0.84958
H          3.44579        0.06666        0.99008
H          4.51118        2.95089        0.82453
H          0.91472       -0.00530        1.01274
H         -0.03623        1.59702        0.93381
H          6.50982        1.53786        0.00181
H          5.90605        0.15936        0.96252
H          6.52182        1.62852        1.76826
