24
TRANS-1,2-DIMETHYLCYCLOHEXANE.gamout	Energy:    -314.0490495
C          2.92704        2.32113        0.94798
C          1.64524        1.49106        0.85493
C          0.88084        1.51685        2.17896
C          3.84440        1.89178        2.10713
C          3.07238        1.90388        3.44809
C          5.11180        2.75323        2.13048
C          1.77894        1.07707        3.33693
C          3.91205        1.42197        4.63596
H          3.48605        2.26252       -0.00130
H          2.66145        3.38755        1.08304
H          1.01033        1.86114        0.03277
H          1.90284        0.44518        0.60247
H          0.51492        2.54313        2.36985
H         -0.01300        0.87346        2.12335
H          4.14898        0.84215        1.91856
H          2.77915        2.95581        3.64232
H          4.87475        3.80193        2.38357
H          5.85219        2.39308        2.86037
H          5.60207        2.75689        1.14326
H          2.05034        0.01182        3.20430
H          1.22328        1.13602        4.28792
H          4.78066        2.06949        4.82974
H          3.30961        1.40135        5.55878
H          4.29002        0.39799        4.46677
