22
TRANS-2-METHYLCYCLOHEXANOL.gamout	Energy:    -349.9217531
C         -1.75180        0.65277       -1.28290
C         -0.84803        0.53798       -0.05352
C         -0.06680       -0.78106       -0.04045
C          0.12006        1.72578        0.06466
C          1.81226        0.30414        1.28569
C          0.85252       -0.88282        1.18103
C          1.04125        1.62575        1.28331
O         -1.00847       -1.84160       -0.06710
H         -2.34084        1.58386       -1.25626
H         -1.15703        0.66164       -2.21342
H         -2.44812       -0.19580       -1.33702
H         -1.48959        0.52356        0.84857
H          0.56349       -0.80720       -0.95842
H         -0.45817        2.66341        0.10068
H          0.73415        1.77707       -0.85468
H          2.43072        0.21596        2.19342
H          2.51216        0.28753        0.42944
H          1.41764       -1.83081        1.13519
H          0.21348       -0.93650        2.08074
H          1.74130        2.47685        1.30176
H          0.43728        1.69681        2.20662
H         -0.52524       -2.67770       -0.05878
