28
TRANS-DECAHYDRONAPHTHALENE.gamout	Energy:    -391.3686635
C         -2.66570       -0.63680        0.14952
C         -1.58147        0.44386        0.23809
C         -0.08320       -1.13725        1.54556
H         -3.66499       -0.17198        0.10857
H         -2.54601       -1.19686       -0.79699
C         -2.57900       -1.61421        1.32547
H         -1.77638        1.09025        1.11571
H         -1.63168        1.10337       -0.64558
C         -0.16951       -0.15151        0.36270
C         -1.17365       -2.21560        1.44742
H         -0.97191       -2.85626        0.56719
H         -1.11945       -2.87807        2.32828
H         -2.82902       -1.08003        2.26116
H         -3.32877       -2.41521        1.21540
C          0.92099        0.92589        0.46108
H          0.02693       -0.73743       -0.55924
C          2.32537        0.32397        0.58080
H          0.72008        1.56567        1.34210
H          0.86589        1.58887       -0.41898
C          1.32866       -1.73097        1.66758
H         -0.27940       -0.55170        2.46777
C          2.41249       -0.65082        1.75748
H          1.52336       -2.37573        0.78877
H          1.37916       -2.39087        2.54990
H          3.41102       -1.11598        1.79896
H          2.29173       -0.08987        2.70331
H          3.07544        1.12457        0.68846
H          2.57340       -0.21185       -0.35451
