24
TRANS-1-METHYL-3-ETHYLCYCLOPENTANE.gamout	Energy:    -314.0399497
C          4.34460        1.35236        0.94602
C          2.86184        1.26681        1.31899
C          2.51784        1.78912        2.71859
C          3.13428        0.99409        3.89589
C          1.01470        1.79202        3.04666
C          2.14423        1.11820        5.09609
C          0.98085        1.98885        4.56444
C          2.77939        1.65733        6.37752
H          4.71202        2.39208        0.98955
H          4.97348        0.75211        1.62445
H          4.51890        0.98270       -0.07722
H          2.26981        1.83368        0.57827
H          2.51985        0.21735        1.24031
H          2.87116        2.83646        2.78888
H          3.25333       -0.06572        3.61009
H          4.14111        1.35714        4.15909
H          0.45422        2.56020        2.49054
H          0.57569        0.81161        2.78090
H          1.74373        0.11307        5.31677
H          1.17079        3.05121        4.80325
H          0.01312        1.72480        5.01844
H          3.22091        2.65624        6.21461
H          3.58177        0.99312        6.73756
H          2.03656        1.75054        7.18699
