21
TRANS-1,3-DIMETHYLCYCLOPENTANE.gamout	Energy:    -274.7844577
C          1.91514        2.62500        1.88175
C          0.44181        2.52225        1.49195
C          2.73139        1.32039        1.66196
C          2.70937        3.69933        1.11625
C          4.12302        1.74004        1.10700
C          4.16513        3.26814        1.30018
C          5.30171        0.99146        1.72636
H          1.96629        2.88376        2.95551
H          0.33115        2.26458        0.42402
H         -0.07519        1.74422        2.07700
H         -0.08780        3.47391        1.66281
H          2.21428        0.64954        0.95516
H          2.83292        0.75818        2.60537
H          2.50338        4.72032        1.47629
H          2.44080        3.67122        0.04356
H          4.13057        1.54553        0.01887
H          4.49782        3.50787        2.32748
H          4.86305        3.76503        0.60793
H          5.33992        1.14634        2.81898
H          5.22788       -0.09348        1.54673
H          6.26275        1.33322        1.30759
