15
TRANS-1,2-DIMETHYLCYCLOPROPANE.gamout	Energy:    -196.2426333
C          1.88980        1.99016        2.90707
C          0.91773        1.64640        4.01464
C          2.00642        1.12944        1.67340
C          1.39398        2.50719        1.57740
C          3.35349        0.83845        1.04857
H          2.83340        2.42762        3.25789
H          0.63988        2.54003        4.59926
H         -0.01344        1.21607        3.60933
H          1.34675        0.90870        4.71399
H          1.29424        0.29622        1.62115
H          0.31201        2.58409        1.43037
H          1.97073        3.29118        1.07638
H          3.25832        0.59957       -0.02439
H          4.02554        1.70856        1.13458
H          3.85051       -0.01504        1.53992
