31
TRI-N-PROPYLAMINE.gamout	Energy:    -409.7587231
C          0.39100       -0.08787       -0.28951
C          1.58932        0.82945       -0.04021
C          1.17738        2.28364        0.20679
N          2.29749        3.19380        0.39661
C          1.97389        4.59257        0.15308
C          3.04346        2.96201        1.63257
C          3.19420        5.47422       -0.12630
C          2.81883        6.92570       -0.43096
C          4.47300        2.45547        1.41434
C          5.22564        2.23062        2.72533
H          0.70931       -1.12727       -0.46709
H         -0.29740       -0.09301        0.57257
H         -0.18725        0.23851       -1.17051
H          2.27794        0.80758       -0.90252
H          2.16588        0.44905        0.82059
H          0.46516        2.31864        1.06737
H          0.60351        2.63067       -0.66895
H          1.30748        4.63692       -0.72425
H          1.39262        5.03727        0.99823
H          2.49838        2.24049        2.27205
H          3.07955        3.89347        2.23018
H          3.87839        5.45180        0.73946
H          3.75570        5.03283       -0.96806
H          3.71299        7.54136       -0.61643
H          2.17377        6.99754       -1.32299
H          2.26975        7.38265        0.40996
H          5.01283        3.18186        0.78296
H          4.43418        1.52213        0.82718
H          6.25199        1.86920        2.55141
H          4.71462        1.48646        3.36023
H          5.29737        3.16391        3.30979
