44
TRIBUTYL_PHOSPHATE.gamout	Energy:   -1114.6818515
P          4.78886       -4.36342        1.82569
O          3.81153       -3.29916        1.49966
O          5.72063       -4.90874        0.62852
O          5.90929       -3.95752        2.92926
O          4.10965       -5.71805        2.35163
C          5.62122       -2.98114        3.94711
C          6.31558       -3.97719       -0.29088
C          4.84624       -6.90270        2.69116
C          6.71141       -1.92218        3.96571
C          6.51850       -0.90307        5.09159
C          3.85095       -7.97426        3.09506
C          4.52372       -9.29315        3.48141
C          6.03075       -4.41399       -1.71763
C          6.69634       -3.50083       -2.74908
C          6.40231       -3.89923       -4.19573
C          7.60313        0.17460        5.13349
C          3.52907      -10.38120        3.89002
H          5.57009       -3.50899        4.91552
H          4.63817       -2.52586        3.74514
H          7.40079       -3.94968       -0.08956
H          5.90516       -2.96939       -0.11192
H          5.54401       -6.67514        3.51652
H          5.44395       -7.21935        1.81941
H          6.72081       -1.41146        2.98654
H          7.69082       -2.42229        4.06952
H          6.49136       -1.43399        6.06095
H          5.52851       -0.42341        4.98505
H          3.15151       -8.13510        2.25633
H          3.24520       -7.59095        3.93483
H          5.23429       -9.11561        4.30940
H          5.13440       -9.65352        2.63347
H          4.93707       -4.42785       -1.86664
H          6.38135       -5.45332       -1.84787
H          7.78927       -3.49876       -2.58208
H          6.36519       -2.45930       -2.58244
H          6.89823       -3.21834       -4.90487
H          5.32032       -3.87232       -4.40820
H          6.75595       -4.92144       -4.41405
H          7.42711        0.88370        5.95722
H          8.60427       -0.26505        5.28087
H          7.63157        0.75396        4.19523
H          2.82538      -10.60977        3.07192
H          2.93060      -10.07093        4.76320
H          4.04658      -11.31592        4.15581
