5
TRIBROMOMETHANE.gamout	Energy:   -7759.8237033
C          0.96303        0.87727        0.04278
Br        -0.01919        2.55716       -0.03444
Br         2.88901        1.15768       -0.03428
Br         0.44565       -0.19937        1.58075
H          0.68965        0.30870       -0.84929
