8
TRICHLOROACETIC_ACID.gamout	Energy:   -1606.9730142
Cl         0.83847       -1.67334       -0.20624
Cl         1.18122        0.94825       -1.44770
Cl         1.19423        0.72046        1.46421
O         -1.58475        0.97081       -0.89460
O         -1.67220       -0.30391        0.95167
C          0.49138        0.07766       -0.05349
C         -1.05351        0.21967        0.06982
H         -2.54465        0.99852       -0.73101
