25
TRIETHANOLAMINE.gamout	Energy:    -517.3547769
O          0.25269       59.67748       -0.42788
C          1.49444       59.05338       -0.17769
C          2.48150       60.15185        0.20312
N          3.82760       59.65670        0.43104
C          4.89151       60.61315        0.19290
C          3.98372       58.86258        1.64224
O          7.24312       60.90764       -0.38361
C          6.22215       59.95544       -0.18452
O          4.33837       56.61522        2.54578
C          4.26836       57.38282        1.36318
H         -0.39777       58.99911       -0.64633
H          1.41506       58.30802        0.63988
H          1.88899       58.52187       -1.06789
H          2.50339       60.86645       -0.63382
H          2.07007       60.70294        1.07880
H          4.58699       61.25727       -0.64932
H          5.07351       61.29151        1.05847
H          3.07614       58.92106        2.27044
H          4.80308       59.27341        2.26606
H          7.00713       61.44547       -1.15082
H          6.57226       59.30151        0.63090
H          6.06095       59.30696       -1.06948
H          5.11224       56.90130        3.04909
H          5.18566       57.28992        0.74773
H          3.44489       56.96272        0.76418
