20
TRIETHYLENEDIAMINE.gamout	Energy:    -344.8493320
C          0.69602       -0.36700        1.37654
C          0.61910        1.44998       -0.17145
N          1.25653        0.16797        0.13436
N         -1.25731       -0.16741       -0.13423
C         -0.92306        1.24376       -0.33762
C         -0.54389       -0.98039       -1.12130
C          0.99894       -0.77363       -0.95731
C         -0.84645       -0.57073        1.21220
H          1.20707       -1.31565        1.60718
H          0.92487        0.33544        2.19442
H          0.84611        2.15648        0.64341
H          1.07268        1.85388       -1.09072
H         -1.26205        1.54150       -1.34298
H         -1.49085        1.84510        0.39044
H         -0.82476       -2.03573       -0.97319
H         -0.88450       -0.68717       -2.12743
H          1.45185       -0.37252       -1.87840
H          1.51041       -1.72228       -0.72662
H         -1.13105       -1.62456        1.36239
H         -1.41194        0.02923        1.94344
