22
TRIETHYLALUMINUM.gamout	Energy:    -479.6436939
Al         2.07291       -1.11844       -0.28021
C          4.00814       -0.69054       -0.16796
C          0.72126        0.29049       -0.64116
C          1.49720       -3.00265       -0.05253
C          4.49713        0.59333       -0.86052
C          0.10484        0.93571        0.61942
C          2.32519       -3.88654        0.89679
H          4.26682       -0.65115        0.91119
H          4.57958       -1.56239       -0.54246
H          1.17036        1.08138       -1.27096
H         -0.08978       -0.14782       -1.25426
H          0.42811       -3.03022        0.23160
H          1.51690       -3.44369       -1.07202
H          5.57442        0.77548       -0.70078
H          4.33712        0.55379       -1.95200
H          3.96314        1.48812       -0.49698
H          0.86899        1.42249        1.25079
H         -0.63961        1.71381        0.37175
H         -0.41333        0.19607        1.25484
H          1.98923       -4.93879        0.89747
H          3.39459       -3.89237        0.62445
H          2.26604       -3.53449        1.94151
