14
TRIFLUOROETHYL_TRIFLUOROACETATE.gamout	Energy:    -902.0934842
C         35.03957       28.06826       -0.34615
O         36.01869       27.77455        0.52093
C         37.26704       28.44097        0.37650
C         33.81290       27.17911       -0.03838
O         35.06823       28.89103       -1.21265
C         38.32895       27.42115       -0.00629
F         34.14646       25.88583       -0.09096
F         33.34808       27.45013        1.18762
F         32.85127       27.41292       -0.92265
F         37.99991       26.78082       -1.13603
F         39.49471       28.05637       -0.19949
F         38.50402       26.50625        0.95305
H         37.21202       29.21797       -0.39842
H         37.53596       28.88716        1.34450
