14
TRIMETHYLCHLOROSILANE.gamout	Energy:    -869.0158986
Cl         2.02296       -0.00144       -0.00121
Si        -0.08836        0.00009        0.00051
C         -0.65691       -1.36825       -1.16023
C         -0.65400       -0.32184        1.76697
C         -0.65210        1.69061       -0.60596
H         -0.28868       -2.35243       -0.82827
H         -1.75927       -1.41044       -1.19593
H         -0.28977       -1.19794       -2.18545
H         -0.28475       -1.29446        2.13079
H         -0.28406        0.45804        2.45220
H         -1.75612       -0.33243        1.82557
H         -1.75418        1.74866       -0.62614
H         -0.28171        2.49346        0.05204
H         -0.28177        1.89040       -1.62456
