14
TRIMETHYLSILANE.gamout	Energy:    -409.5498007
Si         0.00046       -0.00036       -0.44400
C         -1.40616        1.11895        0.15003
C          1.67262        0.65971        0.14972
C         -0.26718       -1.77820        0.14975
H          0.00095       -0.00021       -1.94384
H         -1.45177        1.15487        1.25194
H         -1.27602        2.15275       -0.21235
H         -2.38372        0.75993       -0.21354
H          1.72848        0.68249        1.25154
H          2.50290        0.03085       -0.21349
H          1.84751        1.68571       -0.21541
H         -1.22735       -2.17965       -0.21572
H          0.53234       -2.44578       -0.21345
H         -0.27734       -1.83804        1.25150
