35
TRIPHENYLMETHYL_CHLORIDE.gamout	Energy:   -1192.0586982
C          7.02315        2.55501       -1.22919
C          7.14393        1.25582       -1.71899
C          5.94411        2.87604       -0.39954
C          6.19865        0.28131       -1.38393
C          5.11833        0.58954       -0.54658
C          5.00601        1.90370       -0.06180
C          4.12365       -0.48556       -0.08761
Cl         2.41530        0.27902       -0.23967
C          4.12784       -1.72230       -0.99621
C          4.30427       -0.84980        1.39259
C          4.74184       -2.91438       -0.59069
C          4.79948       -4.01824       -1.44637
C          3.57216       -1.66533       -2.28514
C          3.62576       -2.76644       -3.13689
C          4.24178       -3.95083       -2.72183
C          3.27057       -1.48389        2.10205
C          3.44688       -1.87726        3.42622
C          5.52012       -0.62529        2.05068
C          5.69972       -1.02506        3.37809
C          4.66623       -1.65133        4.07247
H          7.75918        3.31665       -1.49581
H          7.97712        0.99266       -2.37367
H          5.83265        3.89204       -0.01354
H          6.31206       -0.72864       -1.77774
H          4.16111        2.16213        0.57651
H          5.17709       -2.98929        0.40573
H          5.28055       -4.93689       -1.10472
H          3.07982       -0.74955       -2.61255
H          3.17900       -2.70062       -4.13174
H          4.28023       -4.81558       -3.38798
H          2.31304       -1.65229        1.60886
H          2.62528       -2.36109        3.95968
H          6.34033       -0.13275        1.52887
H          6.65673       -0.83600        3.86903
H          4.80460       -1.95801        5.11148
