8
UREA.gamout	Energy:    -224.9834853
N          1.22237        0.60519        0.00430
C          2.32569        1.42713       -0.04434
N          3.53600        0.77403        0.01605
O          2.23756        2.63910       -0.13383
H          0.31740        1.05170       -0.03777
H          1.26857       -0.40097        0.07849
H          3.63608       -0.22818        0.09051
H          4.36661        1.34769       -0.01723
