19
VALINE.gamout	Energy:    -401.8393845
C          0.32167        1.87365        0.18563
C         -0.04344        1.30195       -1.18668
C          1.70282        1.35612        0.67983
C          0.19636        3.39848        0.23099
C          2.80728        1.65717       -0.32802
O          3.47936        0.56188       -0.73393
O          3.09141        2.76317       -0.72213
N          1.61176       -0.06764        0.96959
H          0.11363        0.21371       -1.20302
H          0.56899        1.75688       -1.98393
H         -1.09882        1.50622       -1.42542
H          0.39597        3.78952        1.24249
H         -0.82245        3.70669       -0.05263
H          0.90881        3.87606       -0.45710
H          4.16006        0.87637       -1.35434
H          1.04530       -0.21803        1.80318
H          2.52944       -0.47252        1.14244
H          1.97681        1.97848        1.55959
H         -0.39296        1.45794        0.92027
