6
VINYL_BROMIDE.gamout	Energy:   -2651.6071106
Br         1.68973        0.57879        0.00000
C          0.10973       -0.47246       -0.00000
C          0.11453       -1.80246        0.00000
H         -0.79845        0.13463        0.00000
H         -0.83710       -2.34217        0.00000
H          1.03806       -2.38652       -0.00000
