8
VINYLACETYLENE.gamout	Energy:    -154.5217381
C          1.76284        1.37902        0.15997
C          2.88028        2.26568        0.13146
C          4.16348        1.87552        0.04970
C          0.78888        0.65327        0.18658
H          2.64542        3.33661        0.18088
H          4.97091        2.61158        0.03231
H          4.43837        0.81858       -0.00169
H         -0.06257       -0.00051        0.20875
