12
VINYL_ACETATE.gamout	Energy:    -306.0766440
O          2.28333        2.67369        0.57834
C          1.20724        1.85439        0.38403
C          2.48566        3.71300       -0.29953
C          1.19302        0.75661        1.41266
O          0.41211        2.00317       -0.50522
C          3.52832        4.52761       -0.15339
H          1.73219        3.79235       -1.08632
H          1.51825        1.13262        2.39263
H          1.90347       -0.02970        1.10676
H          0.18784        0.32111        1.47106
H          3.67164        5.34944       -0.85661
H          4.25035        4.39629        0.65620
