100
VIOLAXANTHIN.gamout	Energy:   -1856.1901852
O         11.42119        1.23967       -0.74965
O        -11.46359       -0.96948        0.88166
O         15.12085       -0.43638        0.27340
O        -15.69473       -1.19315        0.78707
C         11.66120       -0.07823       -0.24777
C        -11.66936       -0.05702       -0.20462
C         12.26835        1.13441        0.40534
C        -12.24876        0.19647        1.16232
C         12.51488       -0.97427       -1.18181
C        -12.55369       -0.63254       -1.35571
C         13.70644        1.55261        0.12773
C        -13.71080       -0.09305        1.43773
C         13.75301       -0.19500       -1.67878
C        -14.04009       -0.72270       -0.93983
C         14.56474        0.52691       -0.61440
C        -14.30352       -1.13493        0.50528
C         11.70935        1.71732        1.68661
C        -11.63822        1.19767        2.12197
C         10.46937       -0.73915        0.37133
C        -10.44207        0.68049       -0.63502
C         11.67751       -1.33694       -2.42183
C         12.93128       -2.27009       -0.46230
C        -12.48579        0.23904       -2.62112
C        -12.00881       -2.02936       -1.70612
C          9.20572       -0.26550        0.28095
C         -9.18444        0.37680       -0.24082
C          8.00947       -0.87366        0.85120
C         -7.96885        1.07297       -0.64136
C          8.17303       -2.12207        1.67494
C         -8.10290        2.25511       -1.56290
C          6.79079       -0.29619        0.59848
C         -6.75998        0.62200       -0.17452
C          5.49069       -0.74727        1.02167
C         -5.45037        1.14999       -0.45670
C          4.31956       -0.12897        0.67719
C         -4.28759        0.62106        0.03411
C          2.98103       -0.54843        1.03275
C         -2.94610        1.09417       -0.23188
C          2.82160       -1.76975        1.89918
C         -2.77956        2.30133       -1.11711
C          1.91141        0.17339        0.54887
C         -1.88156        0.41574        0.32054
C          0.51230       -0.07675        0.73198
C         -0.48186        0.68420        0.16986
H         13.65291        2.48376       -0.46327
H         14.20619        1.81428        1.07479
H        -13.82373       -0.42569        2.48275
H        -14.30210        0.83448        1.33765
H         13.41610        0.56422       -2.40144
H         14.40947       -0.89114       -2.22040
H        -14.55028       -1.42158       -1.62423
H        -14.52297        0.25909       -1.08344
H         15.38340        1.06972       -1.12466
H        -13.82721       -2.11199        0.71245
H         12.28847        1.35640        2.55245
H         11.79087        2.81784        1.66643
H         10.65616        1.45166        1.83358
H        -10.57636        1.37031        1.91161
H        -12.16914        2.16246        2.06311
H        -11.73455        0.82736        3.15595
H         10.66576       -1.67413        0.90274
H        -10.61045        1.51159       -1.32334
H         11.30184       -0.42930       -2.91839
H         12.28943       -1.89631       -3.14717
H         10.81332       -1.96465       -2.15895
H         12.07102       -2.93626       -0.30147
H         13.65932       -2.82038       -1.07846
H         13.41257       -2.06066        0.50063
H        -12.77429        1.28322       -2.42015
H        -13.18557       -0.15270       -3.37730
H        -11.48196        0.23525       -3.06860
H        -12.08298       -2.71471       -0.85135
H        -12.57084       -2.45443       -2.55196
H        -10.94918       -1.97430       -1.99798
H         15.67835        0.02928        0.91000
H        -16.07902       -1.90191        0.25573
H          9.05706        0.66699       -0.27449
H         -9.06498       -0.46611        0.44775
H          8.87600       -1.95293        2.50866
H          8.59151       -2.94760        1.07293
H          7.22697       -2.47265        2.10426
H         -8.73755        3.03888       -1.11361
H         -8.58656        1.96540       -2.51213
H         -7.13737        2.71174       -1.80960
H          6.79647        0.61038       -0.01787
H         -6.78363       -0.25150        0.48764
H          5.44032       -1.64956        1.63732
H         -5.38529        2.02336       -1.11115
H          4.38070        0.76902        0.05041
H         -4.35948       -0.25673        0.68770
H          3.23362       -2.66528        1.40184
H          3.37056       -1.65540        2.84926
H          1.77387       -1.97907        2.14426
H         -3.31466        3.17319       -0.70306
H         -3.20279        2.11809       -2.12008
H         -1.72980        2.58814       -1.24759
H          2.15684        1.04203       -0.07365
H         -2.13093       -0.45063        0.94474
H          0.21158       -0.93611        1.34202
H         -0.17939        1.54061       -0.44333
